 Entering Link 1 = C:\G16W\l1.exe PID=     19548.
  
 Copyright (c) 1988-2019, Gaussian, Inc.  All Rights Reserved.
  
 This is part of the Gaussian(R) 16 program.  It is based on
 the Gaussian(R) 09 system (copyright 2009, Gaussian, Inc.),
 the Gaussian(R) 03 system (copyright 2003, Gaussian, Inc.),
 the Gaussian(R) 98 system (copyright 1998, Gaussian, Inc.),
 the Gaussian(R) 94 system (copyright 1995, Gaussian, Inc.),
 the Gaussian 92(TM) system (copyright 1992, Gaussian, Inc.),
 the Gaussian 90(TM) system (copyright 1990, Gaussian, Inc.),
 the Gaussian 88(TM) system (copyright 1988, Gaussian, Inc.),
 the Gaussian 86(TM) system (copyright 1986, Carnegie Mellon
 University), and the Gaussian 82(TM) system (copyright 1983,
 Carnegie Mellon University). Gaussian is a federally registered
 trademark of Gaussian, Inc.
  
 This software contains proprietary and confidential information,
 including trade secrets, belonging to Gaussian, Inc.
  
 This software is provided under written license and may be
 used, copied, transmitted, or stored only in accord with that
 written license.
  
 The following legend is applicable only to US Government
 contracts under FAR:
  
                    RESTRICTED RIGHTS LEGEND
  
 Use, reproduction and disclosure by the US Government is
 subject to restrictions as set forth in subparagraphs (a)
 and (c) of the Commercial Computer Software - Restricted
 Rights clause in FAR 52.227-19.
  
 Gaussian, Inc.
 340 Quinnipiac St., Bldg. 40, Wallingford CT 06492
  
  
 ---------------------------------------------------------------
 Warning -- This program may not be used in any manner that
 competes with the business of Gaussian, Inc. or will provide
 assistance to any competitor of Gaussian, Inc.  The licensee
 of this program is prohibited from giving any competitor of
 Gaussian, Inc. access to this program.  By using this program,
 the user acknowledges that Gaussian, Inc. is engaged in the
 business of creating and licensing software in the field of
 computational chemistry and represents and warrants to the
 licensee that it is not a competitor of Gaussian, Inc. and that
 it will not use this program in any manner prohibited above.
 ---------------------------------------------------------------
  

 Cite this work as:
 Gaussian 16, Revision C.01,
 M. J. Frisch, G. W. Trucks, H. B. Schlegel, G. E. Scuseria, 
 M. A. Robb, J. R. Cheeseman, G. Scalmani, V. Barone, 
 G. A. Petersson, H. Nakatsuji, X. Li, M. Caricato, A. V. Marenich, 
 J. Bloino, B. G. Janesko, R. Gomperts, B. Mennucci, H. P. Hratchian, 
 J. V. Ortiz, A. F. Izmaylov, J. L. Sonnenberg, D. Williams-Young, 
 F. Ding, F. Lipparini, F. Egidi, J. Goings, B. Peng, A. Petrone, 
 T. Henderson, D. Ranasinghe, V. G. Zakrzewski, J. Gao, N. Rega, 
 G. Zheng, W. Liang, M. Hada, M. Ehara, K. Toyota, R. Fukuda, 
 J. Hasegawa, M. Ishida, T. Nakajima, Y. Honda, O. Kitao, H. Nakai, 
 T. Vreven, K. Throssell, J. A. Montgomery, Jr., J. E. Peralta, 
 F. Ogliaro, M. J. Bearpark, J. J. Heyd, E. N. Brothers, K. N. Kudin, 
 V. N. Staroverov, T. A. Keith, R. Kobayashi, J. Normand, 
 K. Raghavachari, A. P. Rendell, J. C. Burant, S. S. Iyengar, 
 J. Tomasi, M. Cossi, J. M. Millam, M. Klene, C. Adamo, R. Cammi, 
 J. W. Ochterski, R. L. Martin, K. Morokuma, O. Farkas, 
 J. B. Foresman, and D. J. Fox, Gaussian, Inc., Wallingford CT, 2019.
 
 ******************************************
 Gaussian 16:  EM64W-G16RevC.01 30-May-2019
                28-Jun-2026 
 ******************************************
 -------------------------
 # opt b3lyp/6-311++g(d,p)
 -------------------------
 1/18=20,19=15,26=3,38=1/1,3;
 2/9=110,12=2,17=6,18=5,40=1/2;
 3/5=4,6=6,7=1111,11=2,25=1,30=1,71=1,74=-5/1,2,3;
 4//1;
 5/5=2,38=5/2;
 6/7=2,8=2,9=2,10=2,28=1/1;
 7//1,2,3,16;
 1/18=20,19=15,26=3/3(2);
 2/9=110/2;
 99//99;
 2/9=110/2;
 3/5=4,6=6,7=1111,11=2,25=1,30=1,71=1,74=-5/1,2,3;
 4/5=5,16=3,69=1/1;
 5/5=2,38=5/2;
 7//1,2,3,16;
 1/18=20,19=15,26=3/3(-5);
 2/9=110/2;
 6/7=2,8=2,9=2,10=2,19=2,28=1/1;
 99/9=1/99;
 ----------
 [No Title]
 ----------
 Symbolic Z-matrix:
 Charge =  0 Multiplicity = 1
 N                    -1.75754   3.75096   1.49345 
 N                    -1.66615   3.17303   0.38319 
 N                    -1.58357   2.65083  -0.62002 
 N                    -0.94604   2.8933    3.16193 
 H                    -1.35179   3.32213   2.32769 
 H                    -0.49892   1.9845    2.90464 
 H                    -0.22567   3.53311   3.56656 
 H                    -1.69827   2.72388   3.86724 
 

 GradGradGradGradGradGradGradGradGradGradGradGradGradGradGradGradGradGrad
 Berny optimization.
 Initialization pass.
                           ----------------------------
                           !    Initial Parameters    !
                           ! (Angstroms and Degrees)  !
 --------------------------                            --------------------------
 ! Name  Definition              Value          Derivative Info.                !
 --------------------------------------------------------------------------------
 ! R1    R(1,2)                  1.255          estimate D2E/DX2                !
 ! R2    R(1,5)                  1.022          estimate D2E/DX2                !
 ! R3    R(2,3)                  1.134          estimate D2E/DX2                !
 ! R4    R(4,5)                  1.022          estimate D2E/DX2                !
 ! R5    R(4,6)                  1.045          estimate D2E/DX2                !
 ! R6    R(4,7)                  1.045          estimate D2E/DX2                !
 ! R7    R(4,8)                  1.045          estimate D2E/DX2                !
 ! A1    A(2,1,5)              120.0            estimate D2E/DX2                !
 ! A2    A(5,4,6)              109.5            estimate D2E/DX2                !
 ! A3    A(5,4,7)              109.4418         estimate D2E/DX2                !
 ! A4    A(5,4,8)              109.4618         estimate D2E/DX2                !
 ! A5    A(6,4,7)              109.4419         estimate D2E/DX2                !
 ! A6    A(6,4,8)              109.4619         estimate D2E/DX2                !
 ! A7    A(7,4,8)              109.5199         estimate D2E/DX2                !
 ! A8    L(1,2,3,6,-1)         180.0            estimate D2E/DX2                !
 ! A9    L(1,5,4,3,-1)         180.0            estimate D2E/DX2                !
 ! A10   L(1,2,3,6,-2)         179.9999         estimate D2E/DX2                !
 ! A11   L(1,5,4,3,-2)         180.0            estimate D2E/DX2                !
 ! D1    D(2,1,4,6)              0.0            estimate D2E/DX2                !
 ! D2    D(2,1,4,7)            119.9636         estimate D2E/DX2                !
 ! D3    D(2,1,4,8)           -120.0005         estimate D2E/DX2                !
 --------------------------------------------------------------------------------
 Trust Radius=3.00D-01 FncErr=1.00D-07 GrdErr=1.00D-06 EigMax=2.50D+02 EigMin=1.00D-04
 Number of steps in this run=     31 maximum allowed number of steps=    100.
 GradGradGradGradGradGradGradGradGradGradGradGradGradGradGradGradGradGrad

                          Input orientation:                          
 ---------------------------------------------------------------------
 Center     Atomic      Atomic             Coordinates (Angstroms)
 Number     Number       Type             X           Y           Z
 ---------------------------------------------------------------------
      1          7           0       -1.757542    3.750958    1.493449
      2          7           0       -1.666147    3.173033    0.383190
      3          7           0       -1.583565    2.650828   -0.620024
      4          7           0       -0.946036    2.893297    3.161925
      5          1           0       -1.351789    3.322128    2.327687
      6          1           0       -0.498917    1.984500    2.904639
      7          1           0       -0.225668    3.533114    3.566560
      8          1           0       -1.698268    2.723881    3.867241
 ---------------------------------------------------------------------
                    Distance matrix (angstroms):
                    1          2          3          4          5
     1  N    0.000000
     2  N    1.255000   0.000000
     3  N    2.389000   1.134000   0.000000
     4  N    2.044000   2.884126   3.842964   0.000000
     5  H    1.022000   1.975378   3.032056   1.022000   0.000000
     6  H    2.587657   3.022043   3.747493   1.044999   1.688050
     7  H    2.586867   3.512618   4.488853   1.045000   1.687445
     8  H    2.587139   3.513030   4.489325   1.045000   1.687653
                    6          7          8
     6  H    0.000000
     7  H    1.706168   0.000000
     8  H    1.706379   1.706991   0.000000
 Stoichiometry    H4N4
 Framework group  C1[X(H4N4)]
 Deg. of freedom    18
 Full point group                 C1      NOp   1
 Largest Abelian subgroup         C1      NOp   1
 Largest concise Abelian subgroup C1      NOp   1
                         Standard orientation:                         
 ---------------------------------------------------------------------
 Center     Atomic      Atomic             Coordinates (Angstroms)
 Number     Number       Type             X           Y           Z
 ---------------------------------------------------------------------
      1          7           0       -0.083517    0.749987    0.000013
      2          7           0        1.005257    0.125810   -0.000001
      3          7           0        1.989057   -0.438187   -0.000014
      4          7           0       -1.850542   -0.277417   -0.000037
      5          1           0       -0.967030    0.236285   -0.000012
      6          1           0       -1.656968   -1.304331   -0.000072
      7          1           0       -2.398628   -0.026807    0.853674
      8          1           0       -2.399157   -0.026498   -0.853317
 ---------------------------------------------------------------------
 Rotational constants (GHZ):          33.5928537           3.7851405           3.4704328
 Standard basis: 6-311++G(d,p) (5D, 7F)
 There are   120 symmetry adapted cartesian basis functions of A   symmetry.
 There are   116 symmetry adapted basis functions of A   symmetry.
   116 basis functions,   180 primitive gaussians,   120 cartesian basis functions
    16 alpha electrons       16 beta electrons
       nuclear repulsion energy       115.9238596933 Hartrees.
 NAtoms=    8 NActive=    8 NUniq=    8 SFac= 1.00D+00 NAtFMM=   60 NAOKFM=F Big=F
 Integral buffers will be    131072 words long.
 Raffenetti 2 integral format.
 Two-electron integral symmetry is turned on.
 One-electron integrals computed using PRISM.
 NBasis=   116 RedAO= T EigKep=  5.63D-06  NBF=   116
 NBsUse=   116 1.00D-06 EigRej= -1.00D+00 NBFU=   116
 ExpMin= 3.60D-02 ExpMax= 6.29D+03 ExpMxC= 9.49D+02 IAcc=3 IRadAn=         5 AccDes= 0.00D+00
 Harris functional with IExCor=  402 and IRadAn=       5 diagonalized for initial guess.
 HarFok:  IExCor=  402 AccDes= 0.00D+00 IRadAn=         5 IDoV= 1 UseB2=F ITyADJ=14
 ICtDFT=  3500011 ScaDFX=  1.000000  1.000000  1.000000  1.000000
 FoFCou: FMM=F IPFlag=           0 FMFlag=      100000 FMFlg1=           0
         NFxFlg=           0 DoJE=T BraDBF=F KetDBF=T FulRan=T
         wScrn=  0.000000 ICntrl=       500 IOpCl=  0 I1Cent=   200000004 NGrid=           0
         NMat0=    1 NMatS0=      1 NMatT0=    0 NMatD0=    1 NMtDS0=    0 NMtDT0=    0
 Petite list used in FoFCou.
 Keep R1 ints in memory in canonical form, NReq=23976708.
 Requested convergence on RMS density matrix=1.00D-08 within 128 cycles.
 Requested convergence on MAX density matrix=1.00D-06.
 Requested convergence on             energy=1.00D-06.
 No special actions if energy rises.
 EnCoef did     2 forward-backward iterations
 SCF Done:  E(RB3LYP) =  -221.320245026     A.U. after   14 cycles
            NFock= 14  Conv=0.15D-08     -V/T= 2.0006

 **********************************************************************

            Population analysis using the SCF Density.

 **********************************************************************

 Orbital symmetries:
       Occupied  (A) (A) (A) (A) (A) (A) (A) (A) (A) (A) (A) (A)
                 (A) (A) (A) (A)
       Virtual   (A) (A) (A) (A) (A) (A) (A) (A) (A) (A) (A) (A)
                 (A) (A) (A) (A) (A) (A) (A) (A) (A) (A) (A) (A)
                 (A) (A) (A) (A) (A) (A) (A) (A) (A) (A) (A) (A)
                 (A) (A) (A) (A) (A) (A) (A) (A) (A) (A) (A) (A)
                 (A) (A) (A) (A) (A) (A) (A) (A) (A) (A) (A) (A)
                 (A) (A) (A) (A) (A) (A) (A) (A) (A) (A) (A) (A)
                 (A) (A) (A) (A) (A) (A) (A) (A) (A) (A) (A) (A)
                 (A) (A) (A) (A) (A) (A) (A) (A) (A) (A) (A) (A)
                 (A) (A) (A) (A)
 The electronic state is 1-A.
 Alpha  occ. eigenvalues --  -14.43674 -14.38483 -14.32173 -14.26972  -1.09024
 Alpha  occ. eigenvalues --   -0.98978  -0.90134  -0.64982  -0.56140  -0.55993
 Alpha  occ. eigenvalues --   -0.45794  -0.45594  -0.41530  -0.35319  -0.22200
 Alpha  occ. eigenvalues --   -0.21661
 Alpha virt. eigenvalues --   -0.05066   0.00430   0.00459   0.01482   0.04166
 Alpha virt. eigenvalues --    0.04740   0.08166   0.08450   0.08841   0.10602
 Alpha virt. eigenvalues --    0.11251   0.13667   0.14160   0.14436   0.14884
 Alpha virt. eigenvalues --    0.16156   0.17560   0.18481   0.20022   0.22676
 Alpha virt. eigenvalues --    0.24010   0.24967   0.28846   0.30052   0.34726
 Alpha virt. eigenvalues --    0.38318   0.43397   0.44237   0.46339   0.54422
 Alpha virt. eigenvalues --    0.67847   0.69169   0.70518   0.70528   0.77085
 Alpha virt. eigenvalues --    0.79086   0.81017   0.84013   0.84586   0.89455
 Alpha virt. eigenvalues --    0.89693   0.91152   0.98122   1.02286   1.03630
 Alpha virt. eigenvalues --    1.10241   1.16723   1.25770   1.31584   1.37336
 Alpha virt. eigenvalues --    1.39515   1.39759   1.50319   1.60455   1.67428
 Alpha virt. eigenvalues --    1.68633   1.70238   1.71920   1.75671   1.92263
 Alpha virt. eigenvalues --    1.95147   2.00190   2.10247   2.14119   2.20182
 Alpha virt. eigenvalues --    2.28945   2.35075   2.35601   2.46302   2.48615
 Alpha virt. eigenvalues --    2.51143   2.53152   2.61716   2.73512   2.75973
 Alpha virt. eigenvalues --    2.83631   2.90398   2.97639   2.98888   3.08990
 Alpha virt. eigenvalues --    3.16550   3.30903   3.60638   3.65672   3.70906
 Alpha virt. eigenvalues --    3.86588   4.00263   4.03329   4.05349   4.26126
 Alpha virt. eigenvalues --    4.46751   4.62965   4.63042   4.72890   5.12331
 Alpha virt. eigenvalues --    5.68119  35.22630  35.55048  36.08261  36.26675
          Condensed to atoms (all electrons):
               1          2          3          4          5          6
     1  N    8.794545   0.554380  -1.387840  -0.182103   0.261967  -0.018169
     2  N    0.554380   6.314548  -0.306899  -0.185993   0.064385   0.015022
     3  N   -1.387840  -0.306899   8.870797  -0.214234   0.086286   0.009208
     4  N   -0.182103  -0.185993  -0.214234   7.383141  -0.065152   0.324894
     5  H    0.261967   0.064385   0.086286  -0.065152   0.330593   0.005657
     6  H   -0.018169   0.015022   0.009208   0.324894   0.005657   0.403222
     7  H   -0.013736   0.015425   0.010455   0.290458   0.004086  -0.017190
     8  H   -0.013710   0.015437   0.010448   0.290374   0.004114  -0.017170
               7          8
     1  N   -0.013736  -0.013710
     2  N    0.015425   0.015437
     3  N    0.010455   0.010448
     4  N    0.290458   0.290374
     5  H    0.004086   0.004114
     6  H   -0.017190  -0.017170
     7  H    0.437048  -0.025886
     8  H   -0.025886   0.437077
 Mulliken charges:
               1
     1  N   -0.995335
     2  N    0.513694
     3  N   -0.078221
     4  N   -0.641385
     5  H    0.308065
     6  H    0.294526
     7  H    0.299339
     8  H    0.299317
 Sum of Mulliken charges =   0.00000
 Mulliken charges with hydrogens summed into heavy atoms:
               1
     1  N   -0.687270
     2  N    0.513694
     3  N   -0.078221
     4  N    0.251797
 Electronic spatial extent (au):  <R**2>=            349.8357
 Charge=              0.0000 electrons
 Dipole moment (field-independent basis, Debye):
    X=             -6.7932    Y=             -2.0839    Z=              0.0003  Tot=              7.1056
 Quadrupole moment (field-independent basis, Debye-Ang):
   XX=            -21.4896   YY=            -26.4257   ZZ=            -23.3592
   XY=              3.4228   XZ=             -0.0001   YZ=             -0.0004
 Traceless Quadrupole moment (field-independent basis, Debye-Ang):
   XX=              2.2686   YY=             -2.6675   ZZ=              0.3990
   XY=              3.4228   XZ=             -0.0001   YZ=             -0.0004
 Octapole moment (field-independent basis, Debye-Ang**2):
  XXX=            -42.9893  YYY=             -7.8375  ZZZ=              0.0013  XYY=             -5.4762
  XXY=              5.7964  XXZ=             -0.0013  XZZ=             -7.0879  YZZ=             -1.0189
  YYZ=             -0.0002  XYZ=              0.0008
 Hexadecapole moment (field-independent basis, Debye-Ang**3):
 XXXX=           -365.0699 YYYY=            -65.8516 ZZZZ=            -27.5935 XXXY=              8.0303
 XXXZ=              0.0082 YYYX=              9.1579 YYYZ=             -0.0002 ZZZX=             -0.0024
 ZZZY=             -0.0007 XXYY=            -71.8079 XXZZ=            -54.2844 YYZZ=            -16.7819
 XXYZ=             -0.0025 YYXZ=              0.0005 ZZXY=              1.0866
 N-N= 1.159238596933D+02 E-N=-7.501503682219D+02  KE= 2.211928952735D+02
 Calling FoFJK, ICntrl=      2127 FMM=F ISym2X=0 I1Cent= 0 IOpClX= 0 NMat=1 NMatS=1 NMatT=0.
 ***** Axes restored to original set *****
 -------------------------------------------------------------------
 Center     Atomic                   Forces (Hartrees/Bohr)
 Number     Number              X              Y              Z
 -------------------------------------------------------------------
      1        7          -0.080126723    0.062593655   -0.224344986
      2        7          -0.008197736    0.041727824    0.072317611
      3        7           0.002366542   -0.012925143   -0.023245693
      4        7           0.096422585   -0.099493882    0.204512406
      5        1          -0.008953424    0.006439322   -0.026472601
      6        1          -0.007544984    0.017436060    0.010119014
      7        1          -0.012631698   -0.016476782   -0.003243573
      8        1           0.018665437    0.000698946   -0.009642179
 -------------------------------------------------------------------
 Cartesian Forces:  Max     0.224344986 RMS     0.074052645

 GradGradGradGradGradGradGradGradGradGradGradGradGradGradGradGradGradGrad
 Berny optimization.
 FormGI is forming the generalized inverse of G from B-inverse, IUseBI=4.
 Internal  Forces:  Max     0.243414200 RMS     0.072783445
 Search for a local minimum.
 Step number   1 out of a maximum of   31
 All quantities printed in internal units (Hartrees-Bohrs-Radians)
 Mixed Optimization -- RFO/linear search
 Second derivative matrix not updated -- first step.
 ITU=  0
     Eigenvalues ---    0.00230   0.00714   0.00726   0.04813   0.04813
     Eigenvalues ---    0.10019   0.10115   0.16000   0.16000   0.16000
     Eigenvalues ---    0.16000   0.40577   0.40577   0.40577   0.44020
     Eigenvalues ---    0.44021   0.81416   1.46438
 RFO step:  Lambda=-1.77974620D-01 EMin= 2.30000000D-03
 Linear search not attempted -- first point.
 Maximum step size (   0.300) exceeded in Quadratic search.
    -- Step size scaled by   0.559
 Iteration  1 RMS(Cart)=  0.11654226 RMS(Int)=  0.00441554
 Iteration  2 RMS(Cart)=  0.00658842 RMS(Int)=  0.00002964
 Iteration  3 RMS(Cart)=  0.00001080 RMS(Int)=  0.00002798
 Iteration  4 RMS(Cart)=  0.00000000 RMS(Int)=  0.00002798
 Variable       Old X    -DE/DX   Delta X   Delta X   Delta X     New X
                                 (Linear)    (Quad)   (Total)
    R1        2.37161  -0.05710   0.00000  -0.03217  -0.03217   2.33944
    R2        1.93130   0.21555   0.00000   0.19489   0.19489   2.12619
    R3        2.14295   0.02669   0.00000   0.00908   0.00908   2.15203
    R4        1.93130   0.24341   0.00000   0.22009   0.22009   2.15139
    R5        1.97476  -0.02088   0.00000  -0.02000  -0.02000   1.95477
    R6        1.97476  -0.02005   0.00000  -0.01920  -0.01920   1.95556
    R7        1.97476  -0.02006   0.00000  -0.01921  -0.01921   1.95556
    A1        2.09439   0.00611   0.00000   0.01011   0.01011   2.10451
    A2        1.91114   0.00419   0.00000   0.00675   0.00669   1.91782
    A3        1.91012   0.00669   0.00000   0.01116   0.01112   1.92124
    A4        1.91047   0.00669   0.00000   0.01114   0.01110   1.92157
    A5        1.91012  -0.00611   0.00000  -0.01027  -0.01033   1.89979
    A6        1.91047  -0.00614   0.00000  -0.01033  -0.01039   1.90008
    A7        1.91148  -0.00532   0.00000  -0.00845  -0.00848   1.90300
    A8        3.14159  -0.00181   0.00000  -0.00448  -0.00448   3.13711
    A9        3.14159   0.00835   0.00000   0.02494   0.02494   3.16653
   A10        3.14159   0.00000   0.00000   0.00000   0.00000   3.14159
   A11        3.14159  -0.00001   0.00000  -0.00002  -0.00002   3.14157
    D1        0.00000  -0.00001   0.00000  -0.00002  -0.00002  -0.00002
    D2        2.09376   0.00045   0.00000   0.00217   0.00220   2.09596
    D3       -2.09440  -0.00043   0.00000  -0.00215  -0.00217  -2.09657
         Item               Value     Threshold  Converged?
 Maximum Force            0.243414     0.000450     NO 
 RMS     Force            0.072783     0.000300     NO 
 Maximum Displacement     0.249813     0.001800     NO 
 RMS     Displacement     0.122707     0.001200     NO 
 Predicted change in Energy=-7.968615D-02
 GradGradGradGradGradGradGradGradGradGradGradGradGradGradGradGradGradGrad

                          Input orientation:                          
 ---------------------------------------------------------------------
 Center     Atomic      Atomic             Coordinates (Angstroms)
 Number     Number       Type             X           Y           Z
 ---------------------------------------------------------------------
      1          7           0       -1.796574    3.775595    1.368407
      2          7           0       -1.704608    3.202795    0.274776
      3          7           0       -1.617460    2.672062   -0.729021
      4          7           0       -0.916370    2.870986    3.247239
      5          1           0       -1.354508    3.314882    2.294822
      6          1           0       -0.461779    1.965945    3.036834
      7          1           0       -0.211368    3.514220    3.647385
      8          1           0       -1.665266    2.715255    3.944226
 ---------------------------------------------------------------------
                    Distance matrix (angstroms):
                    1          2          3          4          5
     1  N    0.000000
     2  N    1.237977   0.000000
     3  N    2.376778   1.138807   0.000000
     4  N    2.263424   3.093049   4.042492   0.000000
     5  H    1.125133   2.053222   3.102578   1.138467   0.000000
     6  H    2.800028   3.271603   4.001983   1.034418   1.779656
     7  H    2.788357   3.701519   4.673249   1.034840   1.782113
     8  H    2.788621   3.701906   4.673691   1.034837   1.782317
                    6          7          8
     6  H    0.000000
     7  H    1.683043   0.000000
     8  H    1.683212   1.685312   0.000000
 Stoichiometry    H4N4
 Framework group  C1[X(H4N4)]
 Deg. of freedom    18
 Full point group                 C1      NOp   1
 Largest Abelian subgroup         C1      NOp   1
 Largest concise Abelian subgroup C1      NOp   1
                         Standard orientation:                         
 ---------------------------------------------------------------------
 Center     Atomic      Atomic             Coordinates (Angstroms)
 Number     Number       Type             X           Y           Z
 ---------------------------------------------------------------------
      1          7           0        0.016693    0.768829    0.000010
      2          7           0        1.071825    0.121308    0.000000
      3          7           0        2.039756   -0.478685   -0.000012
      4          7           0       -1.997061   -0.264555   -0.000033
      5          1           0       -0.977810    0.242626   -0.000019
      6          1           0       -1.878675   -1.292176   -0.000082
      7          1           0       -2.530757    0.010484    0.842829
      8          1           0       -2.531245    0.010789   -0.842483
 ---------------------------------------------------------------------
 Rotational constants (GHZ):          32.0067254           3.4130306           3.1389871
 Standard basis: 6-311++G(d,p) (5D, 7F)
 There are   120 symmetry adapted cartesian basis functions of A   symmetry.
 There are   116 symmetry adapted basis functions of A   symmetry.
   116 basis functions,   180 primitive gaussians,   120 cartesian basis functions
    16 alpha electrons       16 beta electrons
       nuclear repulsion energy       112.6196418203 Hartrees.
 NAtoms=    8 NActive=    8 NUniq=    8 SFac= 1.00D+00 NAtFMM=   60 NAOKFM=F Big=F
 Integral buffers will be    131072 words long.
 Raffenetti 2 integral format.
 Two-electron integral symmetry is turned on.
 One-electron integrals computed using PRISM.
 NBasis=   116 RedAO= T EigKep=  5.63D-06  NBF=   116
 NBsUse=   116 1.00D-06 EigRej= -1.00D+00 NBFU=   116
 Initial guess from the checkpoint file:  "C:/g16w/Scratch\Gau-19548.chk"
 B after Tr=     0.000000    0.000000    0.000000
         Rot=    0.999933    0.000002    0.000000    0.011560 Ang=   1.32 deg.
 ExpMin= 3.60D-02 ExpMax= 6.29D+03 ExpMxC= 9.49D+02 IAcc=3 IRadAn=         5 AccDes= 0.00D+00
 Harris functional with IExCor=  402 and IRadAn=       5 diagonalized for initial guess.
 HarFok:  IExCor=  402 AccDes= 0.00D+00 IRadAn=         5 IDoV= 1 UseB2=F ITyADJ=14
 ICtDFT=  3500011 ScaDFX=  1.000000  1.000000  1.000000  1.000000
 FoFCou: FMM=F IPFlag=           0 FMFlag=      100000 FMFlg1=           0
         NFxFlg=           0 DoJE=T BraDBF=F KetDBF=T FulRan=T
         wScrn=  0.000000 ICntrl=       500 IOpCl=  0 I1Cent=   200000004 NGrid=           0
         NMat0=    1 NMatS0=      1 NMatT0=    0 NMatD0=    1 NMtDS0=    0 NMtDT0=    0
 Petite list used in FoFCou.
 Keep R1 ints in memory in canonical form, NReq=23976708.
 Requested convergence on RMS density matrix=1.00D-08 within 128 cycles.
 Requested convergence on MAX density matrix=1.00D-06.
 Requested convergence on             energy=1.00D-06.
 No special actions if energy rises.
 SCF Done:  E(RB3LYP) =  -221.387809891     A.U. after   12 cycles
            NFock= 12  Conv=0.50D-08     -V/T= 2.0024
 Calling FoFJK, ICntrl=      2127 FMM=F ISym2X=0 I1Cent= 0 IOpClX= 0 NMat=1 NMatS=1 NMatT=0.
 ***** Axes restored to original set *****
 -------------------------------------------------------------------
 Center     Atomic                   Forces (Hartrees/Bohr)
 Number     Number              X              Y              Z
 -------------------------------------------------------------------
      1        7          -0.029624701    0.017475564   -0.098235283
      2        7          -0.001509692    0.021351226    0.050178373
      3        7          -0.000117594   -0.005277049   -0.014808693
      4        7           0.042598739   -0.042113007    0.095224182
      5        1          -0.009362083    0.006609411   -0.028037551
      6        1          -0.005139711    0.011386956    0.005588030
      7        1          -0.008652746   -0.010329296   -0.002862422
      8        1           0.011807789    0.000896195   -0.007046636
 -------------------------------------------------------------------
 Cartesian Forces:  Max     0.098235283 RMS     0.034276180

 GradGradGradGradGradGradGradGradGradGradGradGradGradGradGradGradGradGrad
 Berny optimization.
 Using GEDIIS/GDIIS optimizer.
 FormGI is forming the generalized inverse of G from B-inverse, IUseBI=4.
 Internal  Forces:  Max     0.107336947 RMS     0.030828684
 Search for a local minimum.
 Step number   2 out of a maximum of   31
 All quantities printed in internal units (Hartrees-Bohrs-Radians)
 Mixed Optimization -- RFO/linear search
 Update second derivatives using D2CorX and points    1    2
 DE= -6.76D-02 DEPred=-7.97D-02 R= 8.48D-01
 TightC=F SS=  1.41D+00  RLast= 3.00D-01 DXNew= 5.0454D-01 9.0005D-01
 Trust test= 8.48D-01 RLast= 3.00D-01 DXMaxT set to 5.05D-01
 ITU=  1  0
 Use linear search instead of GDIIS.
 Linear search step of   0.600 exceeds DXMaxT=   0.505 but not scaled.
 Quartic linear search produced a step of  2.00000.
 Iteration  1 RMS(Cart)=  0.12951324 RMS(Int)=  0.06652411
 Iteration  2 RMS(Cart)=  0.10829584 RMS(Int)=  0.00824339
 Iteration  3 RMS(Cart)=  0.01175185 RMS(Int)=  0.00016217
 Iteration  4 RMS(Cart)=  0.00001001 RMS(Int)=  0.00016197
 Iteration  5 RMS(Cart)=  0.00000000 RMS(Int)=  0.00016197
 Variable       Old X    -DE/DX   Delta X   Delta X   Delta X     New X
                                 (Linear)    (Quad)   (Total)
    R1        2.33944  -0.03880  -0.06434   0.00000  -0.06434   2.27510
    R2        2.12619   0.07778   0.38979   0.00000   0.38979   2.51598
    R3        2.15203   0.01550   0.01817   0.00000   0.01817   2.17020
    R4        2.15139   0.10734   0.44018   0.00000   0.44018   2.59157
    R5        1.95477  -0.01336  -0.03999   0.00000  -0.03999   1.91478
    R6        1.95556  -0.01342  -0.03840   0.00000  -0.03840   1.91717
    R7        1.95556  -0.01343  -0.03841   0.00000  -0.03841   1.91715
    A1        2.10451  -0.00026   0.02022   0.00000   0.02022   2.12473
    A2        1.91782   0.00262   0.01338   0.00000   0.01303   1.93085
    A3        1.92124   0.00309   0.02223   0.00000   0.02196   1.94320
    A4        1.92157   0.00308   0.02220   0.00000   0.02193   1.94350
    A5        1.89979  -0.00313  -0.02065   0.00000  -0.02099   1.87881
    A6        1.90008  -0.00315  -0.02078   0.00000  -0.02111   1.87897
    A7        1.90300  -0.00269  -0.01696   0.00000  -0.01713   1.88587
    A8        3.13711   0.00561  -0.00896   0.00000  -0.00896   3.12815
    A9        3.16653   0.00426   0.04988   0.00000   0.04983   3.21636
   A10        3.14159   0.00000   0.00000   0.00000   0.00000   3.14159
   A11        3.14157  -0.00001  -0.00004   0.00000  -0.00004   3.14153
    D1       -0.00002  -0.00001  -0.00005   0.00000  -0.00005  -0.00007
    D2        2.09596   0.00038   0.00439   0.00000   0.00453   2.10048
    D3       -2.09657  -0.00037  -0.00434   0.00000  -0.00447  -2.10105
         Item               Value     Threshold  Converged?
 Maximum Force            0.107337     0.000450     NO 
 RMS     Force            0.030829     0.000300     NO 
 Maximum Displacement     0.489516     0.001800     NO 
 RMS     Displacement     0.246449     0.001200     NO 
 Predicted change in Energy=-3.412246D-02
 GradGradGradGradGradGradGradGradGradGradGradGradGradGradGradGradGradGrad

                          Input orientation:                          
 ---------------------------------------------------------------------
 Center     Atomic      Atomic             Coordinates (Angstroms)
 Number     Number       Type             X           Y           Z
 ---------------------------------------------------------------------
      1          7           0       -1.869613    3.816138    1.119425
      2          7           0       -1.781213    3.260640    0.054973
      3          7           0       -1.689179    2.719226   -0.953624
      4          7           0       -0.858593    2.830717    3.421968
      5          1           0       -1.354439    3.290256    2.228780
      6          1           0       -0.394194    1.939022    3.295875
      7          1           0       -0.182057    3.477112    3.814044
      8          1           0       -1.598644    2.698628    4.103225
 ---------------------------------------------------------------------
                    Distance matrix (angstroms):
                    1          2          3          4          5
     1  N    0.000000
     2  N    1.203931   0.000000
     3  N    2.352298   1.148420   0.000000
     4  N    2.700911   3.517487   4.455122   0.000000
     5  H    1.331399   2.215502   3.250511   1.371399   0.000000
     6  H    3.230690   3.764829   4.510426   1.013255   1.971444
     7  H    3.197460   4.090816   5.057318   1.014520   1.980519
     8  H    3.197704   4.091153   5.057701   1.014512   1.980708
                    6          7          8
     6  H    0.000000
     7  H    1.636833   0.000000
     8  H    1.636923   1.642067   0.000000
 Stoichiometry    H4N4
 Framework group  C1[X(H4N4)]
 Deg. of freedom    18
 Full point group                 C1      NOp   1
 Largest Abelian subgroup         C1      NOp   1
 Largest concise Abelian subgroup C1      NOp   1
                         Standard orientation:                         
 ---------------------------------------------------------------------
 Center     Atomic      Atomic             Coordinates (Angstroms)
 Number     Number       Type             X           Y           Z
 ---------------------------------------------------------------------
      1          7           0        0.207210    0.784842    0.000003
      2          7           0        1.206869    0.113924    0.000002
      3          7           0        2.151747   -0.538819   -0.000007
      4          7           0       -2.293111   -0.236586   -0.000024
      5          1           0       -1.005325    0.234947   -0.000034
      6          1           0       -2.302290   -1.249800   -0.000102
      7          1           0       -2.800491    0.075525    0.821196
      8          1           0       -2.800904    0.075809   -0.820871
 ---------------------------------------------------------------------
 Rotational constants (GHZ):          30.4231624           2.7810083           2.5834827
 Standard basis: 6-311++G(d,p) (5D, 7F)
 There are   120 symmetry adapted cartesian basis functions of A   symmetry.
 There are   116 symmetry adapted basis functions of A   symmetry.
   116 basis functions,   180 primitive gaussians,   120 cartesian basis functions
    16 alpha electrons       16 beta electrons
       nuclear repulsion energy       107.5005442777 Hartrees.
 NAtoms=    8 NActive=    8 NUniq=    8 SFac= 1.00D+00 NAtFMM=   60 NAOKFM=F Big=F
 Integral buffers will be    131072 words long.
 Raffenetti 2 integral format.
 Two-electron integral symmetry is turned on.
 One-electron integrals computed using PRISM.
 NBasis=   116 RedAO= T EigKep=  5.54D-06  NBF=   116
 NBsUse=   116 1.00D-06 EigRej= -1.00D+00 NBFU=   116
 Initial guess from the checkpoint file:  "C:/g16w/Scratch\Gau-19548.chk"
 B after Tr=     0.000000    0.000000    0.000000
         Rot=    0.999841    0.000004    0.000001    0.017828 Ang=   2.04 deg.
 ExpMin= 3.60D-02 ExpMax= 6.29D+03 ExpMxC= 9.49D+02 IAcc=3 IRadAn=         5 AccDes= 0.00D+00
 Harris functional with IExCor=  402 and IRadAn=       5 diagonalized for initial guess.
 HarFok:  IExCor=  402 AccDes= 0.00D+00 IRadAn=         5 IDoV= 1 UseB2=F ITyADJ=14
 ICtDFT=  3500011 ScaDFX=  1.000000  1.000000  1.000000  1.000000
 FoFCou: FMM=F IPFlag=           0 FMFlag=      100000 FMFlg1=           0
         NFxFlg=           0 DoJE=T BraDBF=F KetDBF=T FulRan=T
         wScrn=  0.000000 ICntrl=       500 IOpCl=  0 I1Cent=   200000004 NGrid=           0
         NMat0=    1 NMatS0=      1 NMatT0=    0 NMatD0=    1 NMtDS0=    0 NMtDT0=    0
 Petite list used in FoFCou.
 Keep R1 ints in memory in canonical form, NReq=23976708.
 Requested convergence on RMS density matrix=1.00D-08 within 128 cycles.
 Requested convergence on MAX density matrix=1.00D-06.
 Requested convergence on             energy=1.00D-06.
 No special actions if energy rises.
 SCF Done:  E(RB3LYP) =  -221.409758653     A.U. after   13 cycles
            NFock= 13  Conv=0.30D-08     -V/T= 2.0040
 Calling FoFJK, ICntrl=      2127 FMM=F ISym2X=0 I1Cent= 0 IOpClX= 0 NMat=1 NMatS=1 NMatT=0.
 ***** Axes restored to original set *****
 -------------------------------------------------------------------
 Center     Atomic                   Forces (Hartrees/Bohr)
 Number     Number              X              Y              Z
 -------------------------------------------------------------------
      1        7           0.008596156   -0.002012867    0.036739562
      2        7           0.008582202   -0.015179420    0.001173794
      3        7          -0.003030490    0.004769012   -0.002008988
      4        7          -0.000961822    0.000951209   -0.002285897
      5        1          -0.012614681    0.011116410   -0.031877820
      6        1           0.001440317   -0.003347987   -0.001901100
      7        1           0.001228581    0.003083631   -0.000374639
      8        1          -0.003240264    0.000620011    0.000535087
 -------------------------------------------------------------------
 Cartesian Forces:  Max     0.036739562 RMS     0.011391394

 GradGradGradGradGradGradGradGradGradGradGradGradGradGradGradGradGradGrad
 Berny optimization.
 Using GEDIIS/GDIIS optimizer.
 FormGI is forming the generalized inverse of G from B-inverse, IUseBI=4.
 Internal  Forces:  Max     0.040299622 RMS     0.009764067
 Search for a local minimum.
 Step number   3 out of a maximum of   31
 All quantities printed in internal units (Hartrees-Bohrs-Radians)
 Mixed Optimization -- RFO/linear search
 Update second derivatives using D2CorX and points    2    3
 ITU=  0  1  0
 Use linear search instead of GDIIS.
     Eigenvalues ---    0.00230   0.00715   0.00727   0.04810   0.04813
     Eigenvalues ---    0.09599   0.09892   0.15969   0.16000   0.16000
     Eigenvalues ---    0.16077   0.27425   0.40577   0.40577   0.40862
     Eigenvalues ---    0.44575   0.81712   1.46278
 RFO step:  Lambda=-3.96919327D-03 EMin= 2.30000000D-03
 Quartic linear search produced a step of -0.30491.
 Iteration  1 RMS(Cart)=  0.08075789 RMS(Int)=  0.00631462
 Iteration  2 RMS(Cart)=  0.00689367 RMS(Int)=  0.00006683
 Iteration  3 RMS(Cart)=  0.00006825 RMS(Int)=  0.00004393
 Iteration  4 RMS(Cart)=  0.00000000 RMS(Int)=  0.00004393
 Variable       Old X    -DE/DX   Delta X   Delta X   Delta X     New X
                                 (Linear)    (Quad)   (Total)
    R1        2.27510   0.00595   0.01962  -0.00839   0.01123   2.28633
    R2        2.51598  -0.04030  -0.11885  -0.02922  -0.14807   2.36791
    R3        2.17020  -0.00073  -0.00554   0.00292  -0.00262   2.16758
    R4        2.59157  -0.00449  -0.13421   0.04456  -0.08965   2.50192
    R5        1.91478   0.00384   0.01219  -0.00117   0.01103   1.92580
    R6        1.91717   0.00264   0.01171  -0.00335   0.00836   1.92553
    R7        1.91715   0.00264   0.01171  -0.00334   0.00837   1.92552
    A1        2.12473  -0.01034  -0.00617  -0.04790  -0.05407   2.07066
    A2        1.93085  -0.00082  -0.00397  -0.00048  -0.00441   1.92644
    A3        1.94320  -0.00207  -0.00670  -0.00725  -0.01397   1.92923
    A4        1.94350  -0.00208  -0.00669  -0.00732  -0.01403   1.92946
    A5        1.87881   0.00187   0.00640   0.00633   0.01277   1.89157
    A6        1.87897   0.00186   0.00644   0.00619   0.01267   1.89164
    A7        1.88587   0.00154   0.00522   0.00347   0.00860   1.89447
    A8        3.12815   0.01292   0.00273   0.21067   0.21340   3.34155
    A9        3.21636   0.00071  -0.01519   0.01852   0.00336   3.21972
   A10        3.14159   0.00000   0.00000   0.00001   0.00001   3.14160
   A11        3.14153   0.00000   0.00001  -0.00009  -0.00007   3.14146
    D1       -0.00007  -0.00001   0.00001  -0.00005  -0.00004  -0.00011
    D2        2.10048   0.00039  -0.00138   0.00528   0.00379   2.10428
    D3       -2.10105  -0.00038   0.00136  -0.00519  -0.00372  -2.10476
         Item               Value     Threshold  Converged?
 Maximum Force            0.040300     0.000450     NO 
 RMS     Force            0.009764     0.000300     NO 
 Maximum Displacement     0.170502     0.001800     NO 
 RMS     Displacement     0.084286     0.001200     NO 
 Predicted change in Energy=-3.364478D-03
 GradGradGradGradGradGradGradGradGradGradGradGradGradGradGradGradGradGrad

                          Input orientation:                          
 ---------------------------------------------------------------------
 Center     Atomic      Atomic             Coordinates (Angstroms)
 Number     Number       Type             X           Y           Z
 ---------------------------------------------------------------------
      1          7           0       -1.837065    3.781777    1.186388
      2          7           0       -1.717052    3.177367    0.145199
      3          7           0       -1.718522    2.780939   -0.931148
      4          7           0       -0.873038    2.842016    3.381458
      5          1           0       -1.351276    3.284535    2.228926
      6          1           0       -0.406741    1.945262    3.251280
      7          1           0       -0.198525    3.502089    3.765625
      8          1           0       -1.625714    2.717754    4.056939
 ---------------------------------------------------------------------
                    Distance matrix (angstroms):
                    1          2          3          4          5
     1  N    0.000000
     2  N    1.209871   0.000000
     3  N    2.345142   1.147031   0.000000
     4  N    2.575040   3.361278   4.395127   0.000000
     5  H    1.253047   2.118300   3.220954   1.323958   0.000000
     6  H    3.111654   3.589253   4.462267   1.019090   1.931581
     7  H    3.068469   3.939397   4.989000   1.018945   1.933290
     8  H    3.068694   3.939708   4.989351   1.018940   1.933440
                    6          7          8
     6  H    0.000000
     7  H    1.652759   0.000000
     8  H    1.652793   1.654362   0.000000
 Stoichiometry    H4N4
 Framework group  C1[X(H4N4)]
 Deg. of freedom    18
 Full point group                 C1      NOp   1
 Largest Abelian subgroup         C1      NOp   1
 Largest concise Abelian subgroup C1      NOp   1
                         Standard orientation:                         
 ---------------------------------------------------------------------
 Center     Atomic      Atomic             Coordinates (Angstroms)
 Number     Number       Type             X           Y           Z
 ---------------------------------------------------------------------
      1          7           0        0.156890    0.758067    0.000001
      2          7           0        1.129680    0.038714   -0.000006
      3          7           0        2.169029   -0.446501    0.000000
      4          7           0       -2.220792   -0.230598   -0.000014
      5          1           0       -0.979881    0.230927   -0.000054
      6          1           0       -2.220358   -1.249689   -0.000126
      7          1           0       -2.721514    0.090374    0.827333
      8          1           0       -2.721896    0.090616   -0.827029
 ---------------------------------------------------------------------
 Rotational constants (GHZ):          34.6458003           2.9010249           2.7165693
 Standard basis: 6-311++G(d,p) (5D, 7F)
 There are   120 symmetry adapted cartesian basis functions of A   symmetry.
 There are   116 symmetry adapted basis functions of A   symmetry.
   116 basis functions,   180 primitive gaussians,   120 cartesian basis functions
    16 alpha electrons       16 beta electrons
       nuclear repulsion energy       108.9502679622 Hartrees.
 NAtoms=    8 NActive=    8 NUniq=    8 SFac= 1.00D+00 NAtFMM=   60 NAOKFM=F Big=F
 Integral buffers will be    131072 words long.
 Raffenetti 2 integral format.
 Two-electron integral symmetry is turned on.
 One-electron integrals computed using PRISM.
 NBasis=   116 RedAO= T EigKep=  1.17D-05  NBF=   116
 NBsUse=   116 1.00D-06 EigRej= -1.00D+00 NBFU=   116
 Initial guess from the checkpoint file:  "C:/g16w/Scratch\Gau-19548.chk"
 B after Tr=     0.000000    0.000000    0.000000
         Rot=    0.999986    0.000004    0.000000   -0.005350 Ang=   0.61 deg.
 ExpMin= 3.60D-02 ExpMax= 6.29D+03 ExpMxC= 9.49D+02 IAcc=3 IRadAn=         5 AccDes= 0.00D+00
 Harris functional with IExCor=  402 and IRadAn=       5 diagonalized for initial guess.
 HarFok:  IExCor=  402 AccDes= 0.00D+00 IRadAn=         5 IDoV= 1 UseB2=F ITyADJ=14
 ICtDFT=  3500011 ScaDFX=  1.000000  1.000000  1.000000  1.000000
 FoFCou: FMM=F IPFlag=           0 FMFlag=      100000 FMFlg1=           0
         NFxFlg=           0 DoJE=T BraDBF=F KetDBF=T FulRan=T
         wScrn=  0.000000 ICntrl=       500 IOpCl=  0 I1Cent=   200000004 NGrid=           0
         NMat0=    1 NMatS0=      1 NMatT0=    0 NMatD0=    1 NMtDS0=    0 NMtDT0=    0
 Petite list used in FoFCou.
 Keep R1 ints in memory in canonical form, NReq=23976708.
 Requested convergence on RMS density matrix=1.00D-08 within 128 cycles.
 Requested convergence on MAX density matrix=1.00D-06.
 Requested convergence on             energy=1.00D-06.
 No special actions if energy rises.
 SCF Done:  E(RB3LYP) =  -221.413316713     A.U. after   13 cycles
            NFock= 13  Conv=0.69D-08     -V/T= 2.0035
 Calling FoFJK, ICntrl=      2127 FMM=F ISym2X=0 I1Cent= 0 IOpClX= 0 NMat=1 NMatS=1 NMatT=0.
 ***** Axes restored to original set *****
 -------------------------------------------------------------------
 Center     Atomic                   Forces (Hartrees/Bohr)
 Number     Number              X              Y              Z
 -------------------------------------------------------------------
      1        7           0.010288413   -0.008643721    0.027168189
      2        7          -0.008640624    0.010978853   -0.012785054
      3        7           0.005228328   -0.008697463    0.002196654
      4        7           0.007139011   -0.006998944    0.016078944
      5        1          -0.013643015    0.012824934   -0.032329158
      6        1          -0.000545957    0.001353073    0.000990813
      7        1          -0.001003874   -0.001007185   -0.000436573
      8        1           0.001177717    0.000190454   -0.000883816
 -------------------------------------------------------------------
 Cartesian Forces:  Max     0.032329158 RMS     0.011450858

 GradGradGradGradGradGradGradGradGradGradGradGradGradGradGradGradGradGrad
 Berny optimization.
 Using GEDIIS/GDIIS optimizer.
 FormGI is forming the generalized inverse of G from B-inverse, IUseBI=4.
 Internal  Forces:  Max     0.022414037 RMS     0.007796165
 Search for a local minimum.
 Step number   4 out of a maximum of   31
 All quantities printed in internal units (Hartrees-Bohrs-Radians)
 Mixed Optimization -- RFO/linear search
 Update second derivatives using D2CorX and points    2    3    4
 DE= -3.56D-03 DEPred=-3.36D-03 R= 1.06D+00
 TightC=F SS=  1.41D+00  RLast= 2.82D-01 DXNew= 8.4853D-01 8.4676D-01
 Trust test= 1.06D+00 RLast= 2.82D-01 DXMaxT set to 8.47D-01
 ITU=  1  0  1  0
 Use linear search instead of GDIIS.
     Eigenvalues ---    0.00230   0.00719   0.00729   0.04813   0.09665
     Eigenvalues ---    0.10009   0.12226   0.15205   0.16000   0.16001
     Eigenvalues ---    0.16326   0.18199   0.36763   0.40577   0.40588
     Eigenvalues ---    0.41006   0.82177   1.46211
 RFO step:  Lambda=-4.65003385D-03 EMin= 2.30000000D-03
 Quartic linear search produced a step of -0.23237.
 Iteration  1 RMS(Cart)=  0.06787413 RMS(Int)=  0.00411525
 Iteration  2 RMS(Cart)=  0.00396117 RMS(Int)=  0.00015260
 Iteration  3 RMS(Cart)=  0.00000203 RMS(Int)=  0.00015259
 Iteration  4 RMS(Cart)=  0.00000000 RMS(Int)=  0.00015259
 Variable       Old X    -DE/DX   Delta X   Delta X   Delta X     New X
                                 (Linear)    (Quad)   (Total)
    R1        2.28633   0.00763  -0.00261   0.01021   0.00760   2.29393
    R2        2.36791  -0.01899   0.03441  -0.12219  -0.08778   2.28013
    R3        2.16758   0.00094   0.00061   0.00000   0.00061   2.16819
    R4        2.50192   0.01832   0.02083   0.00043   0.02126   2.52318
    R5        1.92580  -0.00157  -0.00256   0.00329   0.00073   1.92653
    R6        1.92553  -0.00148  -0.00194   0.00104  -0.00090   1.92462
    R7        1.92552  -0.00148  -0.00194   0.00105  -0.00090   1.92462
    A1        2.07066  -0.00319   0.01256  -0.06374  -0.05117   2.01949
    A2        1.92644   0.00118   0.00102   0.00268   0.00386   1.93030
    A3        1.92923  -0.00010   0.00325  -0.01099  -0.00781   1.92142
    A4        1.92946  -0.00011   0.00326  -0.01109  -0.00790   1.92157
    A5        1.89157  -0.00037  -0.00297   0.00804   0.00523   1.89680
    A6        1.89164  -0.00037  -0.00294   0.00789   0.00510   1.89673
    A7        1.89447  -0.00027  -0.00200   0.00422   0.00190   1.89637
    A8        3.34155  -0.02241  -0.04959  -0.09016  -0.13975   3.20180
    A9        3.21972   0.00028  -0.00078   0.05816   0.05748   3.27721
   A10        3.14160   0.00000   0.00000   0.00001   0.00001   3.14160
   A11        3.14146   0.00000   0.00002  -0.00009  -0.00008   3.14138
    D1       -0.00011   0.00000   0.00001  -0.00005  -0.00004  -0.00014
    D2        2.10428   0.00018  -0.00088   0.01247   0.01120   2.11548
    D3       -2.10476  -0.00018   0.00086  -0.01233  -0.01108  -2.11585
         Item               Value     Threshold  Converged?
 Maximum Force            0.022414     0.000450     NO 
 RMS     Force            0.007796     0.000300     NO 
 Maximum Displacement     0.162694     0.001800     NO 
 RMS     Displacement     0.069263     0.001200     NO 
 Predicted change in Energy=-2.816820D-03
 GradGradGradGradGradGradGradGradGradGradGradGradGradGradGradGradGradGrad

                          Input orientation:                          
 ---------------------------------------------------------------------
 Center     Atomic      Atomic             Coordinates (Angstroms)
 Number     Number       Type             X           Y           Z
 ---------------------------------------------------------------------
      1          7           0       -1.850625    3.822615    1.229879
      2          7           0       -1.736894    3.225952    0.178880
      3          7           0       -1.663896    2.713454   -0.845054
      4          7           0       -0.874834    2.834325    3.351743
      5          1           0       -1.359407    3.285744    2.192348
      6          1           0       -0.408596    1.937236    3.220645
      7          1           0       -0.203096    3.498479    3.732455
      8          1           0       -1.630583    2.713935    4.023771
 ---------------------------------------------------------------------
                    Distance matrix (angstroms):
                    1          2          3          4          5
     1  N    0.000000
     2  N    1.213895   0.000000
     3  N    2.360180   1.147354   0.000000
     4  N    2.535979   3.311130   4.272041   0.000000
     5  H    1.206595   2.049421   3.105807   1.335210   0.000000
     6  H    3.097942   3.560547   4.325297   1.019477   1.944198
     7  H    3.013686   3.880039   4.868654   1.018466   1.937586
     8  H    3.013872   3.880290   4.868939   1.018465   1.937682
                    6          7          8
     6  H    0.000000
     7  H    1.655796   0.000000
     8  H    1.655755   1.654718   0.000000
 Stoichiometry    H4N4
 Framework group  C1[X(H4N4)]
 Deg. of freedom    18
 Full point group                 C1      NOp   1
 Largest Abelian subgroup         C1      NOp   1
 Largest concise Abelian subgroup C1      NOp   1
                         Standard orientation:                         
 ---------------------------------------------------------------------
 Center     Atomic      Atomic             Coordinates (Angstroms)
 Number     Number       Type             X           Y           Z
 ---------------------------------------------------------------------
      1          7           0        0.140218    0.802491   -0.000004
      2          7           0        1.127241    0.095860   -0.000005
      3          7           0        2.098659   -0.514688    0.000005
      4          7           0       -2.165396   -0.253603    0.000000
      5          1           0       -0.918221    0.223198   -0.000081
      6          1           0       -2.159634   -1.273064   -0.000134
      7          1           0       -2.663443    0.069652    0.827483
      8          1           0       -2.663757    0.069801   -0.827235
 ---------------------------------------------------------------------
 Rotational constants (GHZ):          30.1159621           3.0534782           2.8149978
 Standard basis: 6-311++G(d,p) (5D, 7F)
 There are   120 symmetry adapted cartesian basis functions of A   symmetry.
 There are   116 symmetry adapted basis functions of A   symmetry.
   116 basis functions,   180 primitive gaussians,   120 cartesian basis functions
    16 alpha electrons       16 beta electrons
       nuclear repulsion energy       109.5830453867 Hartrees.
 NAtoms=    8 NActive=    8 NUniq=    8 SFac= 1.00D+00 NAtFMM=   60 NAOKFM=F Big=F
 Integral buffers will be    131072 words long.
 Raffenetti 2 integral format.
 Two-electron integral symmetry is turned on.
 One-electron integrals computed using PRISM.
 NBasis=   116 RedAO= T EigKep=  6.42D-06  NBF=   116
 NBsUse=   116 1.00D-06 EigRej= -1.00D+00 NBFU=   116
 Initial guess from the checkpoint file:  "C:/g16w/Scratch\Gau-19548.chk"
 B after Tr=     0.000000    0.000000    0.000000
         Rot=    1.000000    0.000008    0.000001   -0.000026 Ang=   0.00 deg.
 ExpMin= 3.60D-02 ExpMax= 6.29D+03 ExpMxC= 9.49D+02 IAcc=3 IRadAn=         5 AccDes= 0.00D+00
 Harris functional with IExCor=  402 and IRadAn=       5 diagonalized for initial guess.
 HarFok:  IExCor=  402 AccDes= 0.00D+00 IRadAn=         5 IDoV= 1 UseB2=F ITyADJ=14
 ICtDFT=  3500011 ScaDFX=  1.000000  1.000000  1.000000  1.000000
 FoFCou: FMM=F IPFlag=           0 FMFlag=      100000 FMFlg1=           0
         NFxFlg=           0 DoJE=T BraDBF=F KetDBF=T FulRan=T
         wScrn=  0.000000 ICntrl=       500 IOpCl=  0 I1Cent=   200000004 NGrid=           0
         NMat0=    1 NMatS0=      1 NMatT0=    0 NMatD0=    1 NMtDS0=    0 NMtDT0=    0
 Petite list used in FoFCou.
 Keep R1 ints in memory in canonical form, NReq=23976708.
 Requested convergence on RMS density matrix=1.00D-08 within 128 cycles.
 Requested convergence on MAX density matrix=1.00D-06.
 Requested convergence on             energy=1.00D-06.
 No special actions if energy rises.
 SCF Done:  E(RB3LYP) =  -221.416494490     A.U. after   12 cycles
            NFock= 12  Conv=0.57D-08     -V/T= 2.0035
 Calling FoFJK, ICntrl=      2127 FMM=F ISym2X=0 I1Cent= 0 IOpClX= 0 NMat=1 NMatS=1 NMatT=0.
 ***** Axes restored to original set *****
 -------------------------------------------------------------------
 Center     Atomic                   Forces (Hartrees/Bohr)
 Number     Number              X              Y              Z
 -------------------------------------------------------------------
      1        7           0.003824445   -0.004642333    0.006255620
      2        7           0.000530368   -0.002666525   -0.004589434
      3        7          -0.000425715    0.002311201    0.004145211
      4        7           0.009754941   -0.010707294    0.018998276
      5        1          -0.013763610    0.015342446   -0.026155944
      6        1          -0.000524646    0.001791736    0.002229477
      7        1          -0.000784165   -0.001315282   -0.000219297
      8        1           0.001388382   -0.000113950   -0.000663910
 -------------------------------------------------------------------
 Cartesian Forces:  Max     0.026155944 RMS     0.008706802

 GradGradGradGradGradGradGradGradGradGradGradGradGradGradGradGradGradGrad
 Berny optimization.
 Using GEDIIS/GDIIS optimizer.
 FormGI is forming the generalized inverse of G from B-inverse, IUseBI=4.
 Internal  Forces:  Max     0.024731620 RMS     0.005925488
 Search for a local minimum.
 Step number   5 out of a maximum of   31
 All quantities printed in internal units (Hartrees-Bohrs-Radians)
 Mixed Optimization -- RFO/linear search
 Update second derivatives using D2CorX and points    2    3    4    5
 DE= -3.18D-03 DEPred=-2.82D-03 R= 1.13D+00
 TightC=F SS=  1.41D+00  RLast= 1.85D-01 DXNew= 1.4241D+00 5.5409D-01
 Trust test= 1.13D+00 RLast= 1.85D-01 DXMaxT set to 8.47D-01
 ITU=  1  1  0  1  0
 Use linear search instead of GDIIS.
     Eigenvalues ---    0.00230   0.00727   0.00832   0.04812   0.06968
     Eigenvalues ---    0.09571   0.10342   0.15486   0.15963   0.16000
     Eigenvalues ---    0.16142   0.18930   0.28397   0.40577   0.40600
     Eigenvalues ---    0.40902   0.81055   1.47305
 RFO step:  Lambda=-6.42481736D-03 EMin= 2.29999998D-03
 Quartic linear search produced a step of  0.23293.
 Iteration  1 RMS(Cart)=  0.19414713 RMS(Int)=  0.03153009
 Iteration  2 RMS(Cart)=  0.09339835 RMS(Int)=  0.00260406
 Iteration  3 RMS(Cart)=  0.00396053 RMS(Int)=  0.00005940
 Iteration  4 RMS(Cart)=  0.00000234 RMS(Int)=  0.00005940
 Iteration  5 RMS(Cart)=  0.00000000 RMS(Int)=  0.00005940
 Variable       Old X    -DE/DX   Delta X   Delta X   Delta X     New X
                                 (Linear)    (Quad)   (Total)
    R1        2.29393   0.00057   0.00177   0.00286   0.00463   2.29856
    R2        2.28013  -0.00846  -0.02045  -0.16536  -0.18581   2.09433
    R3        2.16819  -0.00476   0.00014  -0.00017  -0.00003   2.16816
    R4        2.52318   0.02473   0.00495   0.15442   0.15938   2.68256
    R5        1.92653  -0.00210   0.00017  -0.00679  -0.00661   1.91992
    R6        1.92462  -0.00146  -0.00021  -0.00887  -0.00908   1.91554
    R7        1.92462  -0.00145  -0.00021  -0.00885  -0.00906   1.91556
    A1        2.01949   0.00029  -0.01192  -0.11055  -0.12247   1.89702
    A2        1.93030   0.00280   0.00090   0.02702   0.02779   1.95810
    A3        1.92142   0.00001  -0.00182  -0.01851  -0.02039   1.90103
    A4        1.92157   0.00000  -0.00184  -0.01871  -0.02062   1.90095
    A5        1.89680  -0.00104   0.00122   0.00581   0.00690   1.90370
    A6        1.89673  -0.00103   0.00119   0.00561   0.00667   1.90340
    A7        1.89637  -0.00082   0.00044  -0.00107  -0.00064   1.89573
    A8        3.20180   0.00053  -0.03255  -0.00332  -0.03587   3.16593
    A9        3.27721  -0.00339   0.01339  -0.32912  -0.31575   2.96146
   A10        3.14160   0.00000   0.00000   0.00001   0.00001   3.14161
   A11        3.14138   0.00000  -0.00002   0.00019   0.00017   3.14155
    D1       -0.00014   0.00000  -0.00001  -0.00010  -0.00011  -0.00026
    D2        2.11548  -0.00008   0.00261  -0.03402  -0.03132   2.08415
    D3       -2.11585   0.00008  -0.00258   0.03424   0.03157  -2.08428
         Item               Value     Threshold  Converged?
 Maximum Force            0.024732     0.000450     NO 
 RMS     Force            0.005925     0.000300     NO 
 Maximum Displacement     0.603590     0.001800     NO 
 RMS     Displacement     0.283943     0.001200     NO 
 Predicted change in Energy=-3.878146D-03
 GradGradGradGradGradGradGradGradGradGradGradGradGradGradGradGradGradGrad

                          Input orientation:                          
 ---------------------------------------------------------------------
 Center     Atomic      Atomic             Coordinates (Angstroms)
 Number     Number       Type             X           Y           Z
 ---------------------------------------------------------------------
      1          7           0       -1.926442    3.971444    1.259439
      2          7           0       -1.687750    3.199900    0.349909
      3          7           0       -1.475666    2.489399   -0.525648
      4          7           0       -0.892591    2.829381    3.250869
      5          1           0       -1.506763    3.555760    2.197169
      6          1           0       -0.480315    1.958947    2.927478
      7          1           0       -0.168977    3.403816    3.667904
      8          1           0       -1.589428    2.623092    3.957548
 ---------------------------------------------------------------------
                    Distance matrix (angstroms):
                    1          2          3          4          5
     1  N    0.000000
     2  N    1.216346   0.000000
     3  N    2.363512   1.147341   0.000000
     4  N    2.517727   3.030699   3.836359   0.000000
     5  H    1.108269   1.889910   2.924350   1.419549   0.000000
     6  H    2.987270   3.105113   3.632655   1.015977   2.033902
     7  H    3.035060   3.654770   4.486588   1.013662   1.993946
     8  H    3.035033   3.654783   4.486631   1.013672   1.993900
                    6          7          8
     6  H    0.000000
     7  H    1.653121   0.000000
     8  H    1.652956   1.646544   0.000000
 Stoichiometry    H4N4
 Framework group  C1[X(H4N4)]
 Deg. of freedom    18
 Full point group                 C1      NOp   1
 Largest Abelian subgroup         C1      NOp   1
 Largest concise Abelian subgroup C1      NOp   1
                         Standard orientation:                         
 ---------------------------------------------------------------------
 Center     Atomic      Atomic             Coordinates (Angstroms)
 Number     Number       Type             X           Y           Z
 ---------------------------------------------------------------------
      1          7           0        0.180925    0.998729   -0.000009
      2          7           0        1.028413    0.126225   -0.000007
      3          7           0        1.847613   -0.677082    0.000013
      4          7           0       -1.970977   -0.308277    0.000023
      5          1           0       -0.819585    0.522033   -0.000018
      6          1           0       -1.731974   -1.295742   -0.000216
      7          1           0       -2.525106   -0.101779    0.823315
      8          1           0       -2.525149   -0.101678   -0.823228
 ---------------------------------------------------------------------
 Rotational constants (GHZ):          20.0350222           3.7576447           3.2192613
 Standard basis: 6-311++G(d,p) (5D, 7F)
 There are   120 symmetry adapted cartesian basis functions of A   symmetry.
 There are   116 symmetry adapted basis functions of A   symmetry.
   116 basis functions,   180 primitive gaussians,   120 cartesian basis functions
    16 alpha electrons       16 beta electrons
       nuclear repulsion energy       111.9594161249 Hartrees.
 NAtoms=    8 NActive=    8 NUniq=    8 SFac= 1.00D+00 NAtFMM=   60 NAOKFM=F Big=F
 Integral buffers will be    131072 words long.
 Raffenetti 2 integral format.
 Two-electron integral symmetry is turned on.
 One-electron integrals computed using PRISM.
 NBasis=   116 RedAO= T EigKep=  6.65D-06  NBF=   116
 NBsUse=   116 1.00D-06 EigRej= -1.00D+00 NBFU=   116
 Initial guess from the checkpoint file:  "C:/g16w/Scratch\Gau-19548.chk"
 B after Tr=     0.000000    0.000000    0.000000
         Rot=    0.999994   -0.000002    0.000003    0.003497 Ang=  -0.40 deg.
 ExpMin= 3.60D-02 ExpMax= 6.29D+03 ExpMxC= 9.49D+02 IAcc=3 IRadAn=         5 AccDes= 0.00D+00
 Harris functional with IExCor=  402 and IRadAn=       5 diagonalized for initial guess.
 HarFok:  IExCor=  402 AccDes= 0.00D+00 IRadAn=         5 IDoV= 1 UseB2=F ITyADJ=14
 ICtDFT=  3500011 ScaDFX=  1.000000  1.000000  1.000000  1.000000
 FoFCou: FMM=F IPFlag=           0 FMFlag=      100000 FMFlg1=           0
         NFxFlg=           0 DoJE=T BraDBF=F KetDBF=T FulRan=T
         wScrn=  0.000000 ICntrl=       500 IOpCl=  0 I1Cent=   200000004 NGrid=           0
         NMat0=    1 NMatS0=      1 NMatT0=    0 NMatD0=    1 NMtDS0=    0 NMtDT0=    0
 Petite list used in FoFCou.
 Keep R1 ints in memory in canonical form, NReq=23976708.
 Requested convergence on RMS density matrix=1.00D-08 within 128 cycles.
 Requested convergence on MAX density matrix=1.00D-06.
 Requested convergence on             energy=1.00D-06.
 No special actions if energy rises.
 SCF Done:  E(RB3LYP) =  -221.418847500     A.U. after   13 cycles
            NFock= 13  Conv=0.49D-08     -V/T= 2.0031
 Calling FoFJK, ICntrl=      2127 FMM=F ISym2X=0 I1Cent= 0 IOpClX= 0 NMat=1 NMatS=1 NMatT=0.
 ***** Axes restored to original set *****
 -------------------------------------------------------------------
 Center     Atomic                   Forces (Hartrees/Bohr)
 Number     Number              X              Y              Z
 -------------------------------------------------------------------
      1        7          -0.006449404    0.008085773   -0.009819374
      2        7           0.002655888   -0.008213918   -0.009133688
      3        7          -0.002867870    0.007583067    0.006386609
      4        7           0.009558570   -0.009375545    0.021767833
      5        1          -0.005898464    0.005064332   -0.015288607
      6        1           0.000264792   -0.000000460    0.001190596
      7        1           0.002526190   -0.000946176    0.002211915
      8        1           0.000210298   -0.002197073    0.002684717
 -------------------------------------------------------------------
 Cartesian Forces:  Max     0.021767833 RMS     0.007748333

 GradGradGradGradGradGradGradGradGradGradGradGradGradGradGradGradGradGrad
 Berny optimization.
 Using GEDIIS/GDIIS optimizer.
 FormGI is forming the generalized inverse of G from B-inverse, IUseBI=4.
 Internal  Forces:  Max     0.032513789 RMS     0.008968312
 Search for a local minimum.
 Step number   6 out of a maximum of   31
 All quantities printed in internal units (Hartrees-Bohrs-Radians)
 Mixed Optimization -- RFO/linear search
 Update second derivatives using D2CorX and points    3    4    5    6
 DE= -2.35D-03 DEPred=-3.88D-03 R= 6.07D-01
 TightC=F SS=  1.41D+00  RLast= 4.24D-01 DXNew= 1.4241D+00 1.2722D+00
 Trust test= 6.07D-01 RLast= 4.24D-01 DXMaxT set to 1.27D+00
 ITU=  1  1  1  0  1  0
 Use linear search instead of GDIIS.
     Eigenvalues ---    0.00230   0.00725   0.01536   0.04771   0.04812
     Eigenvalues ---    0.10012   0.10062   0.15465   0.16000   0.16102
     Eigenvalues ---    0.16278   0.18475   0.39610   0.40577   0.40715
     Eigenvalues ---    0.46386   0.80972   1.49201
 RFO step:  Lambda=-5.69772653D-03 EMin= 2.30000001D-03
 Quartic linear search produced a step of -0.24566.
 Iteration  1 RMS(Cart)=  0.09626785 RMS(Int)=  0.02559502
 Iteration  2 RMS(Cart)=  0.06909647 RMS(Int)=  0.00294826
 Iteration  3 RMS(Cart)=  0.00327664 RMS(Int)=  0.00224106
 Iteration  4 RMS(Cart)=  0.00000154 RMS(Int)=  0.00224106
 Iteration  5 RMS(Cart)=  0.00000001 RMS(Int)=  0.00224106
 Variable       Old X    -DE/DX   Delta X   Delta X   Delta X     New X
                                 (Linear)    (Quad)   (Total)
    R1        2.29856   0.00241  -0.00114   0.00786   0.00672   2.30528
    R2        2.09433   0.01595   0.04565  -0.17120  -0.12550   1.96883
    R3        2.16816  -0.01010   0.00001  -0.00289  -0.00288   2.16528
    R4        2.68256   0.03251  -0.03915   0.20158   0.16239   2.84495
    R5        1.91992  -0.00027   0.00162  -0.00482  -0.00320   1.91672
    R6        1.91554   0.00218   0.00223  -0.00457  -0.00234   1.91321
    R7        1.91556   0.00217   0.00222  -0.00455  -0.00232   1.91324
    A1        1.89702   0.00799   0.03009  -0.10648  -0.07640   1.82062
    A2        1.95810  -0.00039  -0.00683   0.02126   0.01655   1.97464
    A3        1.90103   0.00325   0.00501  -0.01115  -0.00696   1.89407
    A4        1.90095   0.00325   0.00506  -0.01138  -0.00712   1.89383
    A5        1.90370  -0.00262  -0.00170   0.00000   0.00035   1.90405
    A6        1.90340  -0.00259  -0.00164  -0.00011   0.00031   1.90371
    A7        1.89573  -0.00091   0.00016   0.00088  -0.00382   1.89191
    A8        3.16593   0.00461   0.00881  -0.00745   0.00137   3.16730
    A9        2.96146   0.01179   0.07757   0.23663   0.31541   3.27686
   A10        3.14161   0.00000   0.00000  -0.00002  -0.00002   3.14159
   A11        3.14155   0.00000  -0.00004   0.00022   0.00018   3.14173
    D1       -0.00026   0.00001   0.00003  -0.00010  -0.00008  -0.00033
    D2        2.08415   0.00022   0.00770   0.04434   0.04628   2.13043
    D3       -2.08428  -0.00023  -0.00776  -0.04414  -0.04613  -2.13041
         Item               Value     Threshold  Converged?
 Maximum Force            0.032514     0.000450     NO 
 RMS     Force            0.008968     0.000300     NO 
 Maximum Displacement     0.389780     0.001800     NO 
 RMS     Displacement     0.156833     0.001200     NO 
 Predicted change in Energy=-3.671010D-03
 GradGradGradGradGradGradGradGradGradGradGradGradGradGradGradGradGradGrad

                          Input orientation:                          
 ---------------------------------------------------------------------
 Center     Atomic      Atomic             Coordinates (Angstroms)
 Number     Number       Type             X           Y           Z
 ---------------------------------------------------------------------
      1          7           0       -1.904560    3.938083    1.277011
      2          7           0       -1.720291    3.238576    0.294719
      3          7           0       -1.561488    2.601441   -0.644289
      4          7           0       -0.868027    2.803592    3.301567
      5          1           0       -1.456080    3.411413    2.056083
      6          1           0       -0.412886    1.912830    3.133741
      7          1           0       -0.193884    3.452247    3.688585
      8          1           0       -1.610716    2.673556    3.977249
 ---------------------------------------------------------------------
                    Distance matrix (angstroms):
                    1          2          3          4          5
     1  N    0.000000
     2  N    1.219903   0.000000
     3  N    2.365524   1.145817   0.000000
     4  N    2.541711   3.155424   4.011425   0.000000
     5  H    1.041858   1.789437   2.821201   1.505484   0.000000
     6  H    3.126369   3.395137   4.008364   1.014285   2.120224
     7  H    2.996354   3.727453   4.622555   1.012426   2.063945
     8  H    2.996106   3.727234   4.622362   1.012444   2.063788
                    6          7          8
     6  H    0.000000
     7  H    1.650945   0.000000
     8  H    1.650759   1.642285   0.000000
 Stoichiometry    H4N4
 Framework group  C1[X(H4N4)]
 Deg. of freedom    18
 Full point group                 C1      NOp   1
 Largest Abelian subgroup         C1      NOp   1
 Largest concise Abelian subgroup C1      NOp   1
                         Standard orientation:                         
 ---------------------------------------------------------------------
 Center     Atomic      Atomic             Coordinates (Angstroms)
 Number     Number       Type             X           Y           Z
 ---------------------------------------------------------------------
      1          7           0        0.166132    0.936522   -0.000016
      2          7           0        1.070894    0.118250   -0.000001
      3          7           0        1.940181   -0.628233    0.000012
      4          7           0       -2.057369   -0.294875    0.000035
      5          1           0       -0.702059    0.360578    0.000070
      6          1           0       -2.010112   -1.308059   -0.000241
      7          1           0       -2.563463    0.012845    0.821121
      8          1           0       -2.563234    0.012982   -0.821164
 ---------------------------------------------------------------------
 Rotational constants (GHZ):          22.5858460           3.4463976           3.0390055
 Standard basis: 6-311++G(d,p) (5D, 7F)
 There are   120 symmetry adapted cartesian basis functions of A   symmetry.
 There are   116 symmetry adapted basis functions of A   symmetry.
   116 basis functions,   180 primitive gaussians,   120 cartesian basis functions
    16 alpha electrons       16 beta electrons
       nuclear repulsion energy       111.0871840841 Hartrees.
 NAtoms=    8 NActive=    8 NUniq=    8 SFac= 1.00D+00 NAtFMM=   60 NAOKFM=F Big=F
 Integral buffers will be    131072 words long.
 Raffenetti 2 integral format.
 Two-electron integral symmetry is turned on.
 One-electron integrals computed using PRISM.
 NBasis=   116 RedAO= T EigKep=  6.54D-06  NBF=   116
 NBsUse=   116 1.00D-06 EigRej= -1.00D+00 NBFU=   116
 Initial guess from the checkpoint file:  "C:/g16w/Scratch\Gau-19548.chk"
 B after Tr=     0.000000    0.000000    0.000000
         Rot=    0.999999   -0.000001    0.000002    0.001248 Ang=  -0.14 deg.
 ExpMin= 3.60D-02 ExpMax= 6.29D+03 ExpMxC= 9.49D+02 IAcc=3 IRadAn=         5 AccDes= 0.00D+00
 Harris functional with IExCor=  402 and IRadAn=       5 diagonalized for initial guess.
 HarFok:  IExCor=  402 AccDes= 0.00D+00 IRadAn=         5 IDoV= 1 UseB2=F ITyADJ=14
 ICtDFT=  3500011 ScaDFX=  1.000000  1.000000  1.000000  1.000000
 FoFCou: FMM=F IPFlag=           0 FMFlag=      100000 FMFlg1=           0
         NFxFlg=           0 DoJE=T BraDBF=F KetDBF=T FulRan=T
         wScrn=  0.000000 ICntrl=       500 IOpCl=  0 I1Cent=   200000004 NGrid=           0
         NMat0=    1 NMatS0=      1 NMatT0=    0 NMatD0=    1 NMtDS0=    0 NMtDT0=    0
 Petite list used in FoFCou.
 Keep R1 ints in memory in canonical form, NReq=23976708.
 Requested convergence on RMS density matrix=1.00D-08 within 128 cycles.
 Requested convergence on MAX density matrix=1.00D-06.
 Requested convergence on             energy=1.00D-06.
 No special actions if energy rises.
 SCF Done:  E(RB3LYP) =  -221.420160883     A.U. after   13 cycles
            NFock= 13  Conv=0.18D-08     -V/T= 2.0028
 Calling FoFJK, ICntrl=      2127 FMM=F ISym2X=0 I1Cent= 0 IOpClX= 0 NMat=1 NMatS=1 NMatT=0.
 ***** Axes restored to original set *****
 -------------------------------------------------------------------
 Center     Atomic                   Forces (Hartrees/Bohr)
 Number     Number              X              Y              Z
 -------------------------------------------------------------------
      1        7          -0.012508974    0.012738811   -0.026993558
      2        7           0.001220453   -0.011863570   -0.026002837
      3        7          -0.003304185    0.010025327    0.010827762
      4        7           0.009599710   -0.011644494    0.015888329
      5        1           0.001942004    0.003383966    0.018631826
      6        1           0.001333378   -0.001209910    0.003157425
      7        1           0.002724573    0.000298047    0.001868291
      8        1          -0.001006960   -0.001728176    0.002622762
 -------------------------------------------------------------------
 Cartesian Forces:  Max     0.026993558 RMS     0.011128228

 GradGradGradGradGradGradGradGradGradGradGradGradGradGradGradGradGradGrad
 Berny optimization.
 Using GEDIIS/GDIIS optimizer.
 FormGI is forming the generalized inverse of G from B-inverse, IUseBI=4.
 Internal  Forces:  Max     0.043327502 RMS     0.013629018
 Search for a local minimum.
 Step number   7 out of a maximum of   31
 All quantities printed in internal units (Hartrees-Bohrs-Radians)
 Mixed Optimization -- RFO/linear search
 Update second derivatives using D2CorX and points    5    6    7
 DE= -1.31D-03 DEPred=-3.67D-03 R= 3.58D-01
 Trust test= 3.58D-01 RLast= 3.90D-01 DXMaxT set to 1.27D+00
 ITU=  0  1  1  1  0  1  0
 Use linear search instead of GDIIS.
     Eigenvalues ---    0.00230   0.00724   0.02330   0.04812   0.06024
     Eigenvalues ---    0.09377   0.10728   0.15884   0.16000   0.16093
     Eigenvalues ---    0.16593   0.18062   0.39933   0.40577   0.40656
     Eigenvalues ---    0.54685   0.85932   1.50262
 RFO step:  Lambda=-5.30799364D-03 EMin= 2.30000002D-03
 Quartic linear search produced a step of -0.36986.
 Iteration  1 RMS(Cart)=  0.07294445 RMS(Int)=  0.00289384
 Iteration  2 RMS(Cart)=  0.00514007 RMS(Int)=  0.00054431
 Iteration  3 RMS(Cart)=  0.00000654 RMS(Int)=  0.00054429
 Iteration  4 RMS(Cart)=  0.00000000 RMS(Int)=  0.00054429
 Variable       Old X    -DE/DX   Delta X   Delta X   Delta X     New X
                                 (Linear)    (Quad)   (Total)
    R1        2.30528   0.01296  -0.00249   0.00691   0.00443   2.30971
    R2        1.96883   0.04333   0.04642  -0.00673   0.03969   2.00852
    R3        2.16528  -0.01491   0.00107  -0.00286  -0.00179   2.16349
    R4        2.84495   0.03018  -0.06006   0.17633   0.11627   2.96122
    R5        1.91672   0.00114   0.00118  -0.00280  -0.00162   1.91510
    R6        1.91321   0.00272   0.00086  -0.00138  -0.00052   1.91269
    R7        1.91324   0.00271   0.00086  -0.00138  -0.00052   1.91272
    A1        1.82062   0.02481   0.02826   0.00009   0.02834   1.84896
    A2        1.97464   0.00388  -0.00612   0.01741   0.01075   1.98539
    A3        1.89407   0.00126   0.00257  -0.00146   0.00137   1.89544
    A4        1.89383   0.00125   0.00264  -0.00158   0.00131   1.89513
    A5        1.90405  -0.00269  -0.00013  -0.00514  -0.00579   1.89826
    A6        1.90371  -0.00265  -0.00011  -0.00511  -0.00575   1.89796
    A7        1.89191  -0.00119   0.00141  -0.00491  -0.00234   1.88957
    A8        3.16730   0.00551  -0.00051  -0.01539  -0.01590   3.15140
    A9        3.27686  -0.00517  -0.11666  -0.03247  -0.14945   3.12741
   A10        3.14159   0.00000   0.00001  -0.00002  -0.00001   3.14158
   A11        3.14173   0.00000  -0.00007  -0.00003  -0.00009   3.14164
    D1       -0.00033   0.00001   0.00003  -0.00002   0.00001  -0.00032
    D2        2.13043  -0.00037  -0.01712  -0.00030  -0.01604   2.11439
    D3       -2.13041   0.00036   0.01706   0.00031   0.01600  -2.11442
         Item               Value     Threshold  Converged?
 Maximum Force            0.043328     0.000450     NO 
 RMS     Force            0.013629     0.000300     NO 
 Maximum Displacement     0.184676     0.001800     NO 
 RMS     Displacement     0.073259     0.001200     NO 
 Predicted change in Energy=-3.473361D-03
 GradGradGradGradGradGradGradGradGradGradGradGradGradGradGradGradGradGrad

                          Input orientation:                          
 ---------------------------------------------------------------------
 Center     Atomic      Atomic             Coordinates (Angstroms)
[...]
 Deg. of freedom    18
 Full point group                 C1      NOp   1
 Largest Abelian subgroup         C1      NOp   1
 Largest concise Abelian subgroup C1      NOp   1
                         Standard orientation:                         
 ---------------------------------------------------------------------
 Center     Atomic      Atomic             Coordinates (Angstroms)
 Number     Number       Type             X           Y           Z
 ---------------------------------------------------------------------
      1          7           0        0.333448    0.908856   -0.000005
      2          7           0        1.219238    0.056800    0.000014
      3          7           0        2.129278   -0.621378   -0.000007
      4          7           0       -2.409809   -0.253137   -0.000001
      5          1           0       -0.613542    0.476128   -0.000024
      6          1           0       -2.465026   -1.267696   -0.000953
      7          1           0       -2.912981    0.076007    0.819128
      8          1           0       -2.913537    0.077571   -0.818158
 ---------------------------------------------------------------------
 Rotational constants (GHZ):          23.9692297           2.6477040           2.4151088
 Standard basis: 6-311++G(d,p) (5D, 7F)
 There are   120 symmetry adapted cartesian basis functions of A   symmetry.
 There are   116 symmetry adapted basis functions of A   symmetry.
   116 basis functions,   180 primitive gaussians,   120 cartesian basis functions
    16 alpha electrons       16 beta electrons
       nuclear repulsion energy       105.8172320508 Hartrees.
 NAtoms=    8 NActive=    8 NUniq=    8 SFac= 1.00D+00 NAtFMM=   60 NAOKFM=F Big=F
 Integral buffers will be    131072 words long.
 Raffenetti 2 integral format.
 Two-electron integral symmetry is turned on.
 One-electron integrals computed using PRISM.
 NBasis=   116 RedAO= T EigKep=  9.07D-06  NBF=   116
 NBsUse=   116 1.00D-06 EigRej= -1.00D+00 NBFU=   116
 Initial guess from the checkpoint file:  "C:/g16w/Scratch\Gau-19548.chk"
 B after Tr=     0.000000    0.000000    0.000000
         Rot=    1.000000    0.000012   -0.000001    0.000052 Ang=   0.01 deg.
 Keep R1 ints in memory in canonical form, NReq=23976708.
 Requested convergence on RMS density matrix=1.00D-08 within 128 cycles.
 Requested convergence on MAX density matrix=1.00D-06.
 Requested convergence on             energy=1.00D-06.
 No special actions if energy rises.
 SCF Done:  E(RB3LYP) =  -221.431808751     A.U. after    9 cycles
            NFock=  9  Conv=0.67D-08     -V/T= 2.0036
 Calling FoFJK, ICntrl=      2127 FMM=F ISym2X=0 I1Cent= 0 IOpClX= 0 NMat=1 NMatS=1 NMatT=0.
 ***** Axes restored to original set *****
 -------------------------------------------------------------------
 Center     Atomic                   Forces (Hartrees/Bohr)
 Number     Number              X              Y              Z
 -------------------------------------------------------------------
      1        7          -0.000010088    0.000031687    0.000027022
      2        7          -0.000016602    0.000018322   -0.000003473
      3        7           0.000015828   -0.000033788   -0.000028783
      4        7          -0.000005522    0.000005938   -0.000011449
      5        1           0.000007328   -0.000012865   -0.000003702
      6        1           0.000001577    0.000000934    0.000010426
      7        1           0.000004745   -0.000004611    0.000004815
      8        1           0.000002734   -0.000005617    0.000005144
 -------------------------------------------------------------------
 Cartesian Forces:  Max     0.000033788 RMS     0.000014936

 GradGradGradGradGradGradGradGradGradGradGradGradGradGradGradGradGradGrad
 Berny optimization.
 Using GEDIIS/GDIIS optimizer.
 FormGI is forming the generalized inverse of G from B-inverse, IUseBI=4.
 Internal  Forces:  Max     0.000042494 RMS     0.000017084
 Search for a local minimum.
 Step number  19 out of a maximum of   31
 All quantities printed in internal units (Hartrees-Bohrs-Radians)
 Mixed Optimization -- En-DIIS/RFO-DIIS
 Swapping is turned off.
 Update second derivatives using D2CorX and points    9   10   11   12   13
                                                     14   15   16   17   18
                                                     19
 DE= -1.61D-07 DEPred=-1.22D-07 R= 1.31D+00
 Trust test= 1.31D+00 RLast= 3.68D-03 DXMaxT set to 1.31D+00
 ITU=  0  0  0  0  0  1  1  1  1  1  1  1  0  1  1  1  0  1  0
     Eigenvalues ---    0.00231   0.00774   0.00997   0.01517   0.02164
     Eigenvalues ---    0.07198   0.09158   0.11181   0.13178   0.16008
     Eigenvalues ---    0.17475   0.18488   0.39339   0.40577   0.40836
     Eigenvalues ---    0.42597   0.87436   1.44996
 En-DIIS/RFO-DIIS/Sim-DIIS IScMMF=       -3 using points:    19   18   17   16   15   14   13   12   11
 RFO step:  Lambda=-2.74379785D-08.
 DIIS inversion failure, remove point   9.
 DIIS inversion failure, remove point   8.
 DIIS inversion failure, remove point   7.
 DIIS inversion failure, remove point   6.
 DIIS inversion failure, remove point   5.
 DIIS inversion failure, remove point   4.
 RFO-DIIS uses    3 points instead of    9
 DidBck=F Rises=F RFO-DIIS coefs:    1.37926   -0.62476    0.24550    0.00000    0.00000
                  RFO-DIIS coefs:    0.00000    0.00000    0.00000    0.00000
 Iteration  1 RMS(Cart)=  0.00025514 RMS(Int)=  0.00000037
 Iteration  2 RMS(Cart)=  0.00000004 RMS(Int)=  0.00000037
 Variable       Old X    -DE/DX   Delta X   Delta X   Delta X     New X
                                 (Linear)    (Quad)   (Total)
    R1        2.32261   0.00003   0.00001   0.00003   0.00004   2.32265
    R2        1.96754   0.00002  -0.00002   0.00002  -0.00001   1.96753
    R3        2.14473   0.00004   0.00002   0.00001   0.00003   2.14476
    R4        3.66353   0.00001   0.00059   0.00009   0.00068   3.66421
    R5        1.92008   0.00000   0.00001   0.00000   0.00001   1.92009
    R6        1.92018   0.00000   0.00001   0.00000   0.00002   1.92020
    R7        1.92018   0.00000   0.00001   0.00000   0.00002   1.92020
    A1        1.94698  -0.00002  -0.00007  -0.00010  -0.00018   1.94681
    A2        2.01083   0.00001   0.00005   0.00012   0.00017   2.01100
    A3        1.91450   0.00001   0.00009  -0.00001   0.00008   1.91458
    A4        1.91441   0.00001   0.00008  -0.00001   0.00007   1.91448
    A5        1.87265  -0.00001  -0.00009  -0.00004  -0.00013   1.87252
    A6        1.87265  -0.00001  -0.00009  -0.00004  -0.00013   1.87252
    A7        1.87358   0.00000  -0.00006  -0.00002  -0.00009   1.87349
    A8        3.26715  -0.00004  -0.00014  -0.00011  -0.00025   3.26690
    A9        3.18455   0.00000   0.00008  -0.00004   0.00004   3.18459
   A10        3.14151   0.00000  -0.00009   0.00023   0.00014   3.14165
   A11        3.14155   0.00000  -0.00011   0.00027   0.00016   3.14171
    D1       -0.00106   0.00000   0.00004  -0.00009  -0.00006  -0.00112
    D2        2.11822   0.00000   0.00002  -0.00003  -0.00001   2.11821
    D3       -2.12025   0.00000   0.00003  -0.00006  -0.00004  -2.12029
         Item               Value     Threshold  Converged?
 Maximum Force            0.000042     0.000450     YES
 RMS     Force            0.000017     0.000300     YES
 Maximum Displacement     0.000420     0.001800     YES
 RMS     Displacement     0.000255     0.001200     YES
 Predicted change in Energy=-1.336406D-08
 Optimization completed.
    -- Stationary point found.
                           ----------------------------
                           !   Optimized Parameters   !
                           ! (Angstroms and Degrees)  !
 --------------------------                            --------------------------
 ! Name  Definition              Value          Derivative Info.                !
 --------------------------------------------------------------------------------
 ! R1    R(1,2)                  1.2291         -DE/DX =    0.0                 !
 ! R2    R(1,5)                  1.0412         -DE/DX =    0.0                 !
 ! R3    R(2,3)                  1.1349         -DE/DX =    0.0                 !
 ! R4    R(4,5)                  1.9387         -DE/DX =    0.0                 !
 ! R5    R(4,6)                  1.0161         -DE/DX =    0.0                 !
 ! R6    R(4,7)                  1.0161         -DE/DX =    0.0                 !
 ! R7    R(4,8)                  1.0161         -DE/DX =    0.0                 !
 ! A1    A(2,1,5)              111.5539         -DE/DX =    0.0                 !
 ! A2    A(5,4,6)              115.2119         -DE/DX =    0.0                 !
 ! A3    A(5,4,7)              109.693          -DE/DX =    0.0                 !
 ! A4    A(5,4,8)              109.6875         -DE/DX =    0.0                 !
 ! A5    A(6,4,7)              107.2948         -DE/DX =    0.0                 !
 ! A6    A(6,4,8)              107.2947         -DE/DX =    0.0                 !
 ! A7    A(7,4,8)              107.348          -DE/DX =    0.0                 !
 ! A8    L(1,2,3,6,-1)         187.1939         -DE/DX =    0.0                 !
 ! A9    L(1,5,4,3,-1)         182.4615         -DE/DX =    0.0                 !
 ! A10   L(1,2,3,6,-2)         179.9954         -DE/DX =    0.0                 !
 ! A11   L(1,5,4,3,-2)         179.9975         -DE/DX =    0.0                 !
 ! D1    D(2,1,4,6)             -0.0608         -DE/DX =    0.0                 !
 ! D2    D(2,1,4,7)            121.365          -DE/DX =    0.0                 !
 ! D3    D(2,1,4,8)           -121.4816         -DE/DX =    0.0                 !
 --------------------------------------------------------------------------------
 GradGradGradGradGradGradGradGradGradGradGradGradGradGradGradGradGradGrad

                          Input orientation:                          
 ---------------------------------------------------------------------
 Center     Atomic      Atomic             Coordinates (Angstroms)
 Number     Number       Type             X           Y           Z
 ---------------------------------------------------------------------
      1          7           0       -1.953898    3.940683    1.044335
      2          7           0       -1.775388    3.246682    0.045775
      3          7           0       -1.680792    2.706818   -0.948054
      4          7           0       -0.795864    2.752763    3.518903
      5          1           0       -1.539930    3.502849    1.893438
      6          1           0       -0.327226    1.858111    3.407737
      7          1           0       -0.121096    3.399829    3.917004
      8          1           0       -1.533737    2.624003    4.205528
 ---------------------------------------------------------------------
                    Distance matrix (angstroms):
                    1          2          3          4          5
     1  N    0.000000
     2  N    1.229075   0.000000
     3  N    2.359369   1.134944   0.000000
     4  N    2.979209   3.642257   4.553999   0.000000
     5  H    1.041175   1.880138   2.954248   1.938659   0.000000
     6  H    3.545256   3.915111   4.639543   1.016062   2.543406
     7  H    3.450206   4.212666   5.155745   1.016115   2.473566
     8  H    3.450119   4.213035   5.156344   1.016115   2.473493
                    6          7          8
     6  H    0.000000
     7  H    1.636684   0.000000
     8  H    1.636682   1.637286   0.000000
 Stoichiometry    H4N4
 Framework group  C1[X(H4N4)]
 Deg. of freedom    18
 Full point group                 C1      NOp   1
 Largest Abelian subgroup         C1      NOp   1
 Largest concise Abelian subgroup C1      NOp   1
                         Standard orientation:                         
 ---------------------------------------------------------------------
 Center     Atomic      Atomic             Coordinates (Angstroms)
 Number     Number       Type             X           Y           Z
 ---------------------------------------------------------------------
      1          7           0        0.333448    0.908856   -0.000005
      2          7           0        1.219238    0.056800    0.000014
      3          7           0        2.129278   -0.621378   -0.000007
      4          7           0       -2.409809   -0.253137   -0.000001
      5          1           0       -0.613542    0.476128   -0.000024
      6          1           0       -2.465026   -1.267696   -0.000953
      7          1           0       -2.912981    0.076007    0.819128
      8          1           0       -2.913537    0.077571   -0.818158
 ---------------------------------------------------------------------
 Rotational constants (GHZ):          23.9692297           2.6477040           2.4151088

 **********************************************************************

            Population analysis using the SCF Density.

 **********************************************************************

 Orbital symmetries:
       Occupied  (A) (A) (A) (A) (A) (A) (A) (A) (A) (A) (A) (A)
                 (A) (A) (A) (A)
       Virtual   (A) (A) (A) (A) (A) (A) (A) (A) (A) (A) (A) (A)
                 (A) (A) (A) (A) (A) (A) (A) (A) (A) (A) (A) (A)
                 (A) (A) (A) (A) (A) (A) (A) (A) (A) (A) (A) (A)
                 (A) (A) (A) (A) (A) (A) (A) (A) (A) (A) (A) (A)
                 (A) (A) (A) (A) (A) (A) (A) (A) (A) (A) (A) (A)
                 (A) (A) (A) (A) (A) (A) (A) (A) (A) (A) (A) (A)
                 (A) (A) (A) (A) (A) (A) (A) (A) (A) (A) (A) (A)
                 (A) (A) (A) (A) (A) (A) (A) (A) (A) (A) (A) (A)
                 (A) (A) (A) (A)
 The electronic state is 1-A.
 Alpha  occ. eigenvalues --  -14.47664 -14.36778 -14.33637 -14.33550  -1.13431
 Alpha  occ. eigenvalues --   -0.96592  -0.89676  -0.59941  -0.50628  -0.50603
 Alpha  occ. eigenvalues --   -0.49955  -0.49675  -0.44046  -0.33599  -0.29166
 Alpha  occ. eigenvalues --   -0.25856
 Alpha virt. eigenvalues --   -0.03412  -0.01719   0.01194   0.01933   0.02534
 Alpha virt. eigenvalues --    0.03083   0.08818   0.09787   0.10116   0.11061
 Alpha virt. eigenvalues --    0.11943   0.13195   0.13977   0.15135   0.16205
 Alpha virt. eigenvalues --    0.16918   0.17264   0.17281   0.18149   0.21454
 Alpha virt. eigenvalues --    0.22825   0.23241   0.27837   0.29295   0.32100
 Alpha virt. eigenvalues --    0.33337   0.35256   0.46882   0.49235   0.59206
 Alpha virt. eigenvalues --    0.61534   0.63923   0.74220   0.75167   0.76200
 Alpha virt. eigenvalues --    0.76509   0.77995   0.80021   0.81572   0.85860
 Alpha virt. eigenvalues --    0.87592   0.88135   0.94527   1.00359   1.06271
 Alpha virt. eigenvalues --    1.07533   1.13240   1.15776   1.25796   1.27673
 Alpha virt. eigenvalues --    1.29924   1.48137   1.48777   1.55979   1.56678
 Alpha virt. eigenvalues --    1.63896   1.64733   1.70405   1.73067   1.79458
 Alpha virt. eigenvalues --    1.88496   1.89415   2.07722   2.09990   2.17949
 Alpha virt. eigenvalues --    2.25988   2.27899   2.33203   2.39232   2.47173
 Alpha virt. eigenvalues --    2.49893   2.56896   2.60021   2.61992   2.62883
 Alpha virt. eigenvalues --    2.68668   2.82692   2.85337   2.97535   3.04275
 Alpha virt. eigenvalues --    3.04595   3.08399   3.27456   3.60014   3.65658
 Alpha virt. eigenvalues --    3.76582   3.94749   3.98758   4.00676   4.10420
 Alpha virt. eigenvalues --    4.23001   4.42682   4.54667   4.68115   4.68208
 Alpha virt. eigenvalues --    5.18052  35.16315  35.56107  35.59044  36.24727
          Condensed to atoms (all electrons):
               1          2          3          4          5          6
     1  N   11.182891  -0.224599  -3.069339   0.003367   0.019357   0.021832
     2  N   -0.224599   7.523286  -1.038483  -0.002076   0.166055  -0.011017
     3  N   -3.069339  -1.038483  10.998276  -0.013382   0.133738  -0.011961
     4  N    0.003367  -0.002076  -0.013382   6.831500  -0.072391   0.345284
     5  H    0.019357   0.166055   0.133738  -0.072391   0.384639   0.003057
     6  H    0.021832  -0.011017  -0.011961   0.345284   0.003057   0.443779
     7  H   -0.014783   0.007407   0.003616   0.349297   0.003702  -0.023013
     8  H   -0.014782   0.007408   0.003616   0.349310   0.003698  -0.023000
               7          8
     1  N   -0.014783  -0.014782
     2  N    0.007407   0.007408
     3  N    0.003616   0.003616
     4  N    0.349297   0.349310
     5  H    0.003702   0.003698
     6  H   -0.023013  -0.023000
     7  H    0.445366  -0.029450
     8  H   -0.029450   0.445333
 Mulliken charges:
               1
     1  N   -0.903943
     2  N    0.572020
     3  N   -0.006081
     4  N   -0.790908
     5  H    0.358144
     6  H    0.255041
     7  H    0.257860
     8  H    0.257868
 Sum of Mulliken charges =   0.00000
 Mulliken charges with hydrogens summed into heavy atoms:
               1
     1  N   -0.545799
     2  N    0.572020
     3  N   -0.006081
     4  N   -0.020140
 Electronic spatial extent (au):  <R**2>=            477.4979
 Charge=              0.0000 electrons
 Dipole moment (field-independent basis, Debye):
    X=             -4.8295    Y=             -1.1858    Z=              0.0000  Tot=              4.9730
 Quadrupole moment (field-independent basis, Debye-Ang):
   XX=            -19.6868   YY=            -26.6350   ZZ=            -23.6754
   XY=              2.6712   XZ=              0.0001   YZ=              0.0000
 Traceless Quadrupole moment (field-independent basis, Debye-Ang):
   XX=              3.6456   YY=             -3.3026   ZZ=             -0.3430
   XY=              2.6712   XZ=              0.0001   YZ=              0.0000
 Octapole moment (field-independent basis, Debye-Ang**2):
  XXX=            -42.9624  YYY=             -6.8894  ZZZ=              0.0030  XYY=             -8.0462
  XXY=              5.5935  XXZ=             -0.0004  XZZ=             -6.1016  YZZ=             -0.5217
  YYZ=             -0.0027  XYZ=              0.0009
 Hexadecapole moment (field-independent basis, Debye-Ang**3):
 XXXX=           -475.3584 YYYY=            -80.4020 ZZZZ=            -27.0037 XXXY=             15.4833
 XXXZ=              0.0038 YYYX=              8.0083 YYYZ=              0.0032 ZZZX=             -0.0085
 ZZZY=             -0.0012 XXYY=            -94.6053 XXZZ=            -76.8532 YYZZ=            -18.8176
 XXYZ=             -0.0049 YYXZ=              0.0070 ZZXY=              0.2155
 N-N= 1.058172320508D+02 E-N=-7.293441401748D+02  KE= 2.206396418295D+02
 Unable to Open any file for archive entry.
 1|1|UNPC-ZHADAWEN|FOpt|RB3LYP|6-311++G(d,p)|H4N4|ZHADA|28-Jun-2026|0||
 # opt b3lyp/6-311++g(d,p)||[No Title]||0,1|N,-1.9538981698,3.940683313
 2,1.044334598|N,-1.7753882376,3.2466820377,0.045775314|N,-1.6807924136
 ,2.7068176551,-0.9480535601|N,-0.7958636653,2.7527634996,3.5189027524|
 H,-1.5399304681,3.5028490505,1.8934381292|H,-0.3272262246,1.8581113627
 ,3.4077373727|H,-0.1210956359,3.3998286969,3.9170044891|H,-1.533737185
 2,2.6240033843,4.2055279047||Version=EM64W-G16RevC.01|State=1-A|HF=-22
 1.4318088|RMSD=6.717e-009|RMSF=1.494e-005|Dipole=0.6498198,-0.5257504,
 1.7689863|Quadrupole=-0.1281222,-1.7272143,1.8553365,0.3694162,1.62064
 69,-2.1634209|PG=C01 [X(H4N4)]||@
 The archive entry for this job was punched.


 IBM COMPATIBILITY IS LIKE PREGNANCY. YOU ARE OR
 OR YOU ARE NOT. -- ADAM OSBORNE
 Job cpu time:       0 days  0 hours 16 minutes 25.0 seconds.
 Elapsed time:       0 days  0 hours 16 minutes 15.1 seconds.
 File lengths (MBytes):  RWF=     10 Int=      0 D2E=      0 Chk=      2 Scr=      1
 Normal termination of Gaussian 16 at Sun Jun 28 23:39:41 2026.
